 vasp.5.4.1 24Jun15 (build Nov 25 2015 16:39:35) complex                        
  
 executed on         CrayXC-Intel date 2016.06.22  00:47:58
 running on  192 total cores
 distrk:  each k-point on  192 cores,    1 groups
 distr:  one band on NCORES_PER_BAND=  24 cores,    8 groups


--------------------------------------------------------------------------------------------------------


 INCAR:
 POTCAR:    PAW_PBE C 08Apr2002                   
 POTCAR:    PAW_PBE N 08Apr2002                   
 POTCAR:    PAW_PBE H 15Jun2001                   
 POTCAR:    PAW_PBE Pb_d 06Sep2000                
 POTCAR:    PAW_PBE I 08Apr2002                   
 POTCAR:    PAW_PBE C 08Apr2002                   
   VRHFIN =C: s2p2                                                              
   LEXCH  = PE                                                                  
   EATOM  =   147.1560 eV,   10.8157 Ry                                         
                                                                                
   TITEL  = PAW_PBE C 08Apr2002                                                 
   LULTRA =        F    use ultrasoft PP ?                                      
   IUNSCR =        1    unscreen: 0-lin 1-nonlin 2-no                           
   RPACOR =    1.200    partial core radius                                     
   POMASS =   12.011; ZVAL   =    4.000    mass and valenz                      
   RCORE  =    1.500    outmost cutoff radius                                   
   RWIGS  =    1.630; RWIGS  =    0.863    wigner-seitz radius (au A)           
   ENMAX  =  400.000; ENMIN  =  300.000 eV                                      
   ICORE  =        2    local potential                                         
   LCOR   =        T    correct aug charges                                     
   LPAW   =        T    paw PP                                                  
   EAUG   =  644.873                                                            
   DEXC   =    0.000                                                            
   RMAX   =    1.529    core radius for proj-oper                               
   RAUG   =    1.300    factor for augmentation sphere                          
   RDEP   =    1.501    radius for radial grids                                 
   RDEPT  =    1.300    core radius for aug-charge                              
                                                                                
   Atomic configuration                                                         
    4 entries                                                                   
     n  l   j            E        occ.                                          
     1  0  0.50      -273.3789   2.0000                                         
     2  0  0.50       -13.7508   2.0000                                         
     2  1  0.50        -5.2854   2.0000                                         
     3  2  1.50        -5.4423   0.0000                                         
   Description                                                                  
     l       E           TYP  RCUT    TYP  RCUT                                 
     0    -13.7508458     23  1.200                                             
     0     -8.2022199     23  1.200                                             
     1     -5.2854383     23  1.500                                             
     1     34.0145650     23  1.500                                             
     2     -5.4423304      7  1.500                                             
  local pseudopotential read in
  partial core-charges read in
  partial kinetic energy density read in
  atomic valenz-charges read in
  non local Contribution for L=           0  read in
    real space projection operators read in
  non local Contribution for L=           0  read in
    real space projection operators read in
  non local Contribution for L=           1  read in
    real space projection operators read in
  non local Contribution for L=           1  read in
    real space projection operators read in
    PAW grid and wavefunctions read in
 
   number of l-projection  operators is LMAX  =           4
   number of lm-projection operators is LMMAX =           8
 
 POTCAR:    PAW_PBE N 08Apr2002                   
   VRHFIN =N: s2p3                                                              
   LEXCH  = PE                                                                  
   EATOM  =   264.5486 eV,   19.4438 Ry                                         
                                                                                
   TITEL  = PAW_PBE N 08Apr2002                                                 
   LULTRA =        F    use ultrasoft PP ?                                      
   IUNSCR =        1    unscreen: 0-lin 1-nonlin 2-no                           
   RPACOR =    1.200    partial core radius                                     
   POMASS =   14.001; ZVAL   =    5.000    mass and valenz                      
   RCORE  =    1.500    outmost cutoff radius                                   
   RWIGS  =    1.400; RWIGS  =    0.741    wigner-seitz radius (au A)           
   ENMAX  =  400.000; ENMIN  =  300.000 eV                                      
   ICORE  =        2    local potential                                         
   LCOR   =        T    correct aug charges                                     
   LPAW   =        T    paw PP                                                  
   EAUG   =  627.112                                                            
   DEXC   =    0.000                                                            
   RMAX   =    1.529    core radius for proj-oper                               
   RAUG   =    1.300    factor for augmentation sphere                          
   RDEP   =    1.514    radius for radial grids                                 
   RDEPT  =    1.338    core radius for aug-charge                              
                                                                                
   Atomic configuration                                                         
    4 entries                                                                   
     n  l   j            E        occ.                                          
     1  0  0.50      -384.7179   2.0000                                         
     2  0  0.50       -18.5828   2.0000                                         
     2  1  0.50        -7.0898   3.0000                                         
     3  2  1.50        -6.8029   0.0000                                         
   Description                                                                  
     l       E           TYP  RCUT    TYP  RCUT                                 
     0    -18.5828119     23  1.200                                             
     0    -13.5018863     23  1.200                                             
     1     -7.0897853     23  1.500                                             
     1      9.5240782     23  1.500                                             
     2     -6.8029130      7  1.500                                             
  local pseudopotential read in
  partial core-charges read in
  partial kinetic energy density read in
  atomic valenz-charges read in
  non local Contribution for L=           0  read in
    real space projection operators read in
  non local Contribution for L=           0  read in
    real space projection operators read in
  non local Contribution for L=           1  read in
    real space projection operators read in
  non local Contribution for L=           1  read in
    real space projection operators read in
    PAW grid and wavefunctions read in
 
   number of l-projection  operators is LMAX  =           4
   number of lm-projection operators is LMMAX =           8
 
 POTCAR:    PAW_PBE H 15Jun2001                   
   VRHFIN =H: ultrasoft test                                                    
   LEXCH  = PE                                                                  
   EATOM  =    12.4884 eV,    0.9179 Ry                                         
                                                                                
   TITEL  = PAW_PBE H 15Jun2001                                                 
   LULTRA =        F    use ultrasoft PP ?                                      
   IUNSCR =        0    unscreen: 0-lin 1-nonlin 2-no                           
   RPACOR =    0.000    partial core radius                                     
   POMASS =    1.000; ZVAL   =    1.000    mass and valenz                      
   RCORE  =    1.100    outmost cutoff radius                                   
   RWIGS  =    0.700; RWIGS  =    0.370    wigner-seitz radius (au A)           
   ENMAX  =  250.000; ENMIN  =  200.000 eV                                      
   RCLOC  =    0.701    cutoff for local pot                                    
   LCOR   =        T    correct aug charges                                     
   LPAW   =        T    paw PP                                                  
   EAUG   =  400.000                                                            
   RMAX   =    1.123    core radius for proj-oper                               
   RAUG   =    1.200    factor for augmentation sphere                          
   RDEP   =    1.112    radius for radial grids                                 
   RDEPT  =    0.926    core radius for aug-charge                              
                                                                                
   Atomic configuration                                                         
    2 entries                                                                   
     n  l   j            E        occ.                                          
     1  0  0.50        -6.4927   1.0000                                         
     2  1  0.50        -3.4015   0.0000                                         
   Description                                                                  
     l       E           TYP  RCUT    TYP  RCUT                                 
     0     -6.4927494     23  1.100                                             
     0      6.8029130     23  1.100                                             
     1     -4.0817478     23  1.100                                             
  local pseudopotential read in
  atomic valenz-charges read in
  non local Contribution for L=           0  read in
    real space projection operators read in
  non local Contribution for L=           0  read in
    real space projection operators read in
  non local Contribution for L=           1  read in
    real space projection operators read in
    PAW grid and wavefunctions read in
 
   number of l-projection  operators is LMAX  =           3
   number of lm-projection operators is LMMAX =           5
 
 POTCAR:    PAW_PBE Pb_d 06Sep2000                
   VRHFIN =Pb:                                                                  
   LEXCH  = PE                                                                  
   EATOM  =  1661.6185 eV,  122.1255 Ry                                         
                                                                                
   TITEL  = PAW_PBE Pb_d 06Sep2000                                              
   LULTRA =        F    use ultrasoft PP ?                                      
   IUNSCR =        1    unscreen: 0-lin 1-nonlin 2-no                           
   RPACOR =    2.200    partial core radius                                     
   POMASS =  207.200; ZVAL   =   14.000    mass and valenz                      
   RCORE  =    2.500    outmost cutoff radius                                   
   RWIGS  =    3.260; RWIGS  =    1.725    wigner-seitz radius (au A)           
   ENMAX  =  237.835; ENMIN  =  178.376 eV                                      
   ICORE  =        3    local potential                                         
   LCOR   =        T    correct aug charges                                     
   LPAW   =        T    paw PP                                                  
   EAUG   =  391.914                                                            
   DEXC   =    0.000                                                            
   RMAX   =    2.565    core radius for proj-oper                               
   RAUG   =    1.300    factor for augmentation sphere                          
   RDEP   =    2.643    radius for radial grids                                 
   RDEPT  =    2.092    core radius for aug-charge                              
                                                                                
   Atomic configuration                                                         
   16 entries                                                                   
     n  l   j            E        occ.                                          
     1  0  0.50    -88091.8466   2.0000                                         
     2  0  0.50    -15753.4197   2.0000                                         
     2  1  1.50    -13508.1797   6.0000                                         
     3  0  0.50     -3781.7194   2.0000                                         
     3  1  1.50     -3138.2529   6.0000                                         
     3  2  2.50     -2483.2977  10.0000                                         
     4  0  0.50      -856.2895   2.0000                                         
     4  1  1.50      -645.4942   6.0000                                         
     4  2  2.50      -401.8768  10.0000                                         
     4  3  3.50      -132.9059  14.0000                                         
     5  0  0.50      -144.0950   2.0000                                         
     5  1  1.50       -85.7879   6.0000                                         
     5  2  2.50       -21.1769  10.0000                                         
     6  0  0.50       -12.0372   2.0000                                         
     6  1  1.50        -3.4971   2.0000                                         
     5  3  2.50        -2.7212   0.0000                                         
   Description                                                                  
     l       E           TYP  RCUT    TYP  RCUT                                 
     2    -21.1768523     23  2.500                                             
     2      1.3605826     23  2.500                                             
     0    -12.0371562     23  2.500                                             
     0     13.6058260     23  2.500                                             
     1     -3.4971339     23  2.500                                             
     1     13.6058260     23  2.500                                             
     3     -1.3605826      7  2.500                                             
  local pseudopotential read in
  partial core-charges read in
  partial kinetic energy density read in
  atomic valenz-charges read in
  non local Contribution for L=           2  read in
    real space projection operators read in
  non local Contribution for L=           2  read in
    real space projection operators read in
  non local Contribution for L=           0  read in
    real space projection operators read in
  non local Contribution for L=           0  read in
    real space projection operators read in
  non local Contribution for L=           1  read in
    real space projection operators read in
  non local Contribution for L=           1  read in
    real space projection operators read in
    PAW grid and wavefunctions read in
 
   number of l-projection  operators is LMAX  =           6
   number of lm-projection operators is LMMAX =          18
 
 POTCAR:    PAW_PBE I 08Apr2002                   
   VRHFIN =I : s2p5                                                             
   LEXCH  = PE                                                                  
   EATOM  =   315.8678 eV,   23.2156 Ry                                         
                                                                                
   TITEL  = PAW_PBE I 08Apr2002                                                 
   LULTRA =        F    use ultrasoft PP ?                                      
   IUNSCR =        1    unscreen: 0-lin 1-nonlin 2-no                           
   RPACOR =    2.200    partial core radius                                     
   POMASS =  126.904; ZVAL   =    7.000    mass and valenz                      
   RCORE  =    2.300    outmost cutoff radius                                   
   RWIGS  =    2.810; RWIGS  =    1.487    wigner-seitz radius (au A)           
   ENMAX  =  175.647; ENMIN  =  131.735 eV                                      
   ICORE  =        3    local potential                                         
   LCOR   =        T    correct aug charges                                     
   LPAW   =        T    paw PP                                                  
   EAUG   =  370.139                                                            
   DEXC   =    0.000                                                            
   RMAX   =    2.359    core radius for proj-oper                               
   RAUG   =    1.300    factor for augmentation sphere                          
   RDEP   =    2.392    radius for radial grids                                 
   RDEPT  =    2.170    core radius for aug-charge                              
                                                                                
   Atomic configuration                                                         
   13 entries                                                                   
     n  l   j            E        occ.                                          
     1  0  0.50    -32976.3739   2.0000                                         
     2  0  0.50     -5094.5933   2.0000                                         
     2  1  1.50     -4572.0131   6.0000                                         
     3  0  0.50     -1028.2813   2.0000                                         
     3  1  1.50      -859.0250   6.0000                                         
     3  2  2.50      -605.7620  10.0000                                         
     4  0  0.50      -180.5540   2.0000                                         
     4  1  1.50      -127.5306   6.0000                                         
     4  2  2.50       -50.2720  10.0000                                         
     5  0  0.50       -17.4058   2.0000                                         
     5  1  0.50        -7.0851   5.0000                                         
     5  2  1.50        -7.0750   0.0000                                         
     4  3  2.50        -7.0750   0.0000                                         
   Description                                                                  
     l       E           TYP  RCUT    TYP  RCUT                                 
     0    -17.4058016     23  2.300                                             
     0    -18.7663842     23  2.300                                             
     1     -7.0850686     23  2.300                                             
     1     -4.2150896     23  2.300                                             
     2     -7.0750295     23  2.300                                             
     3     -1.3605826     23  2.300                                             
  local pseudopotential read in
  partial core-charges read in
  partial kinetic energy density read in
  atomic valenz-charges read in
  non local Contribution for L=           0  read in
    real space projection operators read in
  non local Contribution for L=           0  read in
    real space projection operators read in
  non local Contribution for L=           1  read in
    real space projection operators read in
  non local Contribution for L=           1  read in
    real space projection operators read in
  non local Contribution for L=           2  read in
    real space projection operators read in
    PAW grid and wavefunctions read in
 
   number of l-projection  operators is LMAX  =           5
   number of lm-projection operators is LMMAX =          13
 

 ----------------------------------------------------------------------------- 
|                                                                             |
|  ADVICE TO THIS USER RUNNING 'VASP/VAMP'   (HEAR YOUR MASTER'S VOICE ...):  |
|                                                                             |
|      You have a (more or less) 'large supercell' and for larger cells       |
|      it might be more efficient to use real space projection opertators     |
|      So try LREAL= Auto  in the INCAR   file.                               |
|      Mind: At the moment your POTCAR file does not contain real space       |
|       projectors, and has to be modified,  BUT if you                       |
|      want to do an extremely  accurate calculation you might also keep the  |
|      reciprocal projection scheme          (i.e. LREAL=.FALSE.)             |
|                                                                             |
 ----------------------------------------------------------------------------- 


 ----------------------------------------------------------------------------- 
|                                                                             |
|  ADVICE TO THIS USER RUNNING 'VASP/VAMP'   (HEAR YOUR MASTER'S VOICE ...):  |
|                                                                             |
|      You enforced a specific xc-type in the INCAR file,                     |
|      a different type was found on the POTCAR file                          |
|          I HOPE YOU KNOW, WHAT YOU ARE  DOING                               |
|                                                                             |
 ----------------------------------------------------------------------------- 

  PAW_PBE C 08Apr2002                   :
 energy of atom  1       EATOM= -147.1560
 kinetic energy error for atom=    0.0032 (will be added to EATOM!!)
  PAW_PBE N 08Apr2002                   :
 energy of atom  2       EATOM= -264.5486
 kinetic energy error for atom=    0.0061 (will be added to EATOM!!)
  PAW_PBE H 15Jun2001                   :
 energy of atom  3       EATOM=  -12.4884
 kinetic energy error for atom=    0.0002 (will be added to EATOM!!)
  PAW_PBE Pb_d 06Sep2000                :
 energy of atom  4       EATOM=-1661.6185
 kinetic energy error for atom=    0.0012 (will be added to EATOM!!)
  PAW_PBE I 08Apr2002                   :
 energy of atom  5       EATOM= -315.8678
 kinetic energy error for atom=    0.0003 (will be added to EATOM!!)
 
 
 POSCAR: C N H Pb I                              
  positions in direct lattice
  No initial velocities read in
 exchange correlation table for  LEXCH =       14
   RHO(1)=    0.500       N(1)  =     2000
   RHO(2)=  100.500       N(2)  =     4000
 


--------------------------------------------------------------------------------------------------------


 ion  position               nearest neighbor table
   1  0.198  0.250  0.229-  25 1.10  33 1.10  17 1.11   9 1.49
   2  0.696  0.250  0.229-  26 1.10  34 1.10  18 1.11  10 1.49
   3  0.196  0.750  0.229-  27 1.10  35 1.10  19 1.11  11 1.49
   4  0.698  0.750  0.229-  28 1.10  36 1.10  20 1.11  12 1.49
   5  0.196  0.250  0.729-  29 1.10  37 1.10  21 1.11  13 1.49
   6  0.698  0.250  0.729-  30 1.10  38 1.10  22 1.11  14 1.49
   7  0.198  0.750  0.729-  31 1.10  39 1.10  23 1.11  15 1.49
   8  0.696  0.750  0.729-  32 1.10  40 1.10  24 1.11  16 1.49
   9  0.311  0.250  0.261-  41 1.05  49 1.05  57 1.06   1 1.49
  10  0.798  0.250  0.286-  58 1.04  42 1.05  50 1.05   2 1.49
  11  0.298  0.750  0.286-  59 1.04  43 1.05  51 1.05   3 1.49
  12  0.811  0.750  0.261-  44 1.05  52 1.05  60 1.06   4 1.49
  13  0.298  0.250  0.786-  61 1.04  45 1.05  53 1.05   5 1.49
  14  0.811  0.250  0.761-  46 1.05  54 1.05  62 1.06   6 1.49
  15  0.311  0.750  0.761-  47 1.05  55 1.05  63 1.06   7 1.49
  16  0.798  0.750  0.786-  64 1.04  48 1.05  56 1.05   8 1.49
  17  0.196  0.250  0.142-   1 1.11
  18  0.715  0.250  0.144-   2 1.11
  19  0.215  0.750  0.144-   3 1.11
  20  0.696  0.750  0.142-   4 1.11
  21  0.215  0.250  0.644-   5 1.11
  22  0.696  0.250  0.642-   6 1.11
  23  0.196  0.750  0.642-   7 1.11
  24  0.715  0.750  0.644-   8 1.11
  25  0.158  0.322  0.260-   1 1.10
  26  0.651  0.322  0.251-   2 1.10
  27  0.151  0.822  0.251-   3 1.10
  28  0.658  0.822  0.260-   4 1.10
  29  0.151  0.322  0.751-   5 1.10
  30  0.658  0.322  0.760-   6 1.10
  31  0.158  0.822  0.760-   7 1.10
  32  0.651  0.822  0.751-   8 1.10
  33  0.158  0.177  0.260-   1 1.10
  34  0.651  0.177  0.251-   2 1.10
  35  0.151  0.677  0.251-   3 1.10
  36  0.658  0.677  0.260-   4 1.10
  37  0.151  0.177  0.751-   5 1.10
  38  0.658  0.177  0.760-   6 1.10
  39  0.158  0.677  0.760-   7 1.10
  40  0.651  0.677  0.751-   8 1.10
  41  0.352  0.318  0.234-   9 1.05
  42  0.844  0.318  0.268-  10 1.05
  43  0.344  0.818  0.268-  11 1.05
  44  0.852  0.818  0.234-  12 1.05
  45  0.344  0.318  0.768-  13 1.05
  46  0.852  0.318  0.734-  14 1.05
  47  0.352  0.818  0.734-  15 1.05
  48  0.844  0.818  0.768-  16 1.05
  49  0.352  0.182  0.234-   9 1.05
  50  0.844  0.182  0.268-  10 1.05
  51  0.344  0.682  0.268-  11 1.05
  52  0.852  0.682  0.234-  12 1.05
  53  0.344  0.182  0.768-  13 1.05
  54  0.852  0.182  0.734-  14 1.05
  55  0.352  0.682  0.734-  15 1.05
  56  0.844  0.682  0.768-  16 1.05
  57  0.320  0.250  0.343-   9 1.06
  58  0.787  0.250  0.368-  10 1.04
  59  0.287  0.750  0.368-  11 1.04
  60  0.820  0.750  0.343-  12 1.06
  61  0.287  0.250  0.868-  13 1.04
  62  0.820  0.250  0.843-  14 1.06
  63  0.320  0.750  0.843-  15 1.06
  64  0.787  0.750  0.868-  16 1.04
  65  0.472  0.498  0.489-  90 3.10  87 3.15  85 3.17  77 3.17  73 3.22  89 3.27
  66  0.972  0.502  0.489-  89 3.10  86 3.15  88 3.17  78 3.17  74 3.22  90 3.27
  67  0.472  0.002  0.489-  92 3.10  87 3.15  85 3.17  79 3.17  75 3.22  91 3.27
  68  0.972  0.998  0.489-  91 3.10  86 3.15  88 3.17  80 3.17  76 3.22  92 3.27
  69  0.472  0.502  0.989-  94 3.10  81 3.15  83 3.17  73 3.17  77 3.22  93 3.27
  70  0.972  0.498  0.989-  93 3.10  84 3.15  82 3.17  74 3.17  78 3.22  94 3.27
  71  0.472  0.998  0.989-  96 3.10  81 3.15  83 3.17  75 3.17  79 3.22  95 3.27
  72  0.972  0.002  0.989-  95 3.10  84 3.15  82 3.17  76 3.17  80 3.22  96 3.27
  73  0.455  0.503  0.238-  69 3.17  65 3.22
  74  0.955  0.497  0.238-  70 3.17  66 3.22
  75  0.455  0.997  0.238-  71 3.17  67 3.22
  76  0.955  0.003  0.238-  72 3.17  68 3.22
  77  0.455  0.497  0.738-  65 3.17  69 3.22
  78  0.955  0.503  0.738-  66 3.17  70 3.22
  79  0.455  0.003  0.738-  67 3.17  71 3.22
  80  0.955  0.997  0.738-  68 3.17  72 3.22
  81  0.475  0.250  0.011-  71 3.15  69 3.15
  82  0.925  0.250  0.013-  72 3.17  70 3.17
  83  0.425  0.750  0.013-  69 3.17  71 3.17
  84  0.975  0.750  0.011-  70 3.15  72 3.15
  85  0.425  0.250  0.513-  67 3.17  65 3.17
  86  0.975  0.250  0.511-  68 3.15  66 3.15
  87  0.475  0.750  0.511-  65 3.15  67 3.15
  88  0.925  0.750  0.513-  66 3.17  68 3.17
  89  0.216  0.529  0.461-  66 3.10  65 3.27
  90  0.716  0.471  0.461-  65 3.10  66 3.27
  91  0.216  0.971  0.461-  68 3.10  67 3.27
  92  0.716  0.029  0.461-  67 3.10  68 3.27
  93  0.216  0.471  0.961-  70 3.10  69 3.27
  94  0.716  0.529  0.961-  69 3.10  70 3.27
  95  0.216  0.029  0.961-  72 3.10  71 3.27
  96  0.716  0.971  0.961-  71 3.10  72 3.27
 
  LATTYP: Found a triclinic cell.
 ALAT       =    17.8238589327
 B/A-ratio  =     0.6989248630
 C/A-ratio  =     1.0156975818
 COS(alpha) =     0.0001355172
 COS(beta)  =     0.5146378593
 COS(gamma) =     0.6988877578
  
  Lattice vectors:
  
 A1 = (  -0.1406063366, -12.4576271275, -12.7466742118)
 A2 = (  -0.0011956322, -12.4575380825,   0.0007464135)
 A3 = ( -12.7162481321,  -0.0020049566, -12.8856194186)


Analysis of symmetry for initial positions (statically):
=====================================================================
 Subroutine PRICEL returns following result:
 
  LATTYP: Found a triclinic cell.
 ALAT       =     8.8524544993
 B/A-ratio  =     1.4072411401
 C/A-ratio  =     1.0225215175
 COS(alpha) =     0.0001355172
 COS(beta)  =     0.5046167836
 COS(gamma) =     0.7037964938
  
  Lattice vectors:
  
 A1 = (   6.2890165300,   6.2297269971,   0.0687261899)
 A2 = (   0.0011956322,  12.4575380825,  -0.0007464135)
 A3 = (   6.3581240661,   0.0010024783,   6.4428097093)
 
   4 primitive cells build up your supercell.
 

 Routine SETGRP: Setting up the symmetry group for a 
 triclinic supercell.


 Subroutine GETGRP returns: Found  1 space group operations
 (whereof  1 operations were pure point group operations)
 out of a pool of  2 trial point group operations.


The static configuration has the point symmetry C_1 .


Analysis of symmetry for dynamics (positions and initial velocities):
=====================================================================
 Subroutine PRICEL returns following result:
 
  LATTYP: Found a triclinic cell.
 ALAT       =     8.8524544993
 B/A-ratio  =     1.4072411401
 C/A-ratio  =     1.0225215175
 COS(alpha) =     0.0001355172
 COS(beta)  =     0.5046167836
 COS(gamma) =     0.7037964938
  
  Lattice vectors:
  
 A1 = (   6.2890165300,   6.2297269971,   0.0687261899)
 A2 = (   0.0011956322,  12.4575380825,  -0.0007464135)
 A3 = (   6.3581240661,   0.0010024783,   6.4428097093)
 
   4 primitive cells build up your supercell.
 

 Routine SETGRP: Setting up the symmetry group for a 
 triclinic supercell.


 Subroutine GETGRP returns: Found  1 space group operations
 (whereof  1 operations were pure point group operations)
 out of a pool of  2 trial point group operations.


The dynamic configuration has the point symmetry C_1 .


Analysis of structural, dynamic, and magnetic symmetry:
=====================================================================
 Subroutine PRICEL returns following result:
 
  LATTYP: Found a triclinic cell.
 ALAT       =     8.8524544993
 B/A-ratio  =     1.4072411401
 C/A-ratio  =     1.0225215175
 COS(alpha) =     0.0001355172
 COS(beta)  =     0.5046167836
 COS(gamma) =     0.7037964938
  
  Lattice vectors:
  
 A1 = (   6.2890165300,   6.2297269971,   0.0687261899)
 A2 = (   0.0011956322,  12.4575380825,  -0.0007464135)
 A3 = (   6.3581240661,   0.0010024783,   6.4428097093)
 
   4 primitive cells build up your supercell.
 

 Routine SETGRP: Setting up the symmetry group for a 
 triclinic supercell.


 Subroutine GETGRP returns: Found  1 space group operations
 (whereof  1 operations were pure point group operations)
 out of a pool of  2 trial point group operations.


The (compounded) configuration has the point symmetry C_1 .


 Subroutine INISYM returns: Found  1 space group operations
 (whereof  1 operations are pure point group operations),
 and found     4 'primitive' translations

 
 
 KPOINTS: Automatic 3x3x3                         

Automatic generation of k-mesh.
Space group operators:
 irot       det(A)        alpha          n_x          n_y          n_z        tau_x        tau_y        tau_z
    1     1.000000     0.000000     1.000000     0.000000     0.000000     0.000000     0.000000     0.000000
 
 Subroutine IBZKPT returns following result:
 ===========================================
 
 Found     27 irreducible k-points:
 
 Following reciprocal coordinates:
            Coordinates               Weight
  0.000000  0.000000  0.000000      1.000000
  0.333333 -0.000000 -0.000000      1.000000
 -0.333333  0.000000  0.000000      1.000000
  0.000000  0.333333 -0.000000      1.000000
  0.333333  0.333333  0.000000      1.000000
 -0.333333  0.333333  0.000000      1.000000
 -0.000000 -0.333333  0.000000      1.000000
  0.333333 -0.333333 -0.000000      1.000000
 -0.333333 -0.333333 -0.000000      1.000000
  0.000000  0.000000  0.333333      1.000000
  0.333333  0.000000  0.333333      1.000000
 -0.333333  0.000000  0.333333      1.000000
  0.000000  0.333333  0.333333      1.000000
  0.333333  0.333333  0.333333      1.000000
 -0.333333  0.333333  0.333333      1.000000
  0.000000 -0.333333  0.333333      1.000000
  0.333333 -0.333333  0.333333      1.000000
 -0.333333 -0.333333  0.333333      1.000000
  0.000000  0.000000 -0.333333      1.000000
  0.333333 -0.000000 -0.333333      1.000000
 -0.333333 -0.000000 -0.333333      1.000000
 -0.000000  0.333333 -0.333333      1.000000
  0.333333  0.333333 -0.333333      1.000000
 -0.333333  0.333333 -0.333333      1.000000
 -0.000000 -0.333333 -0.333333      1.000000
  0.333333 -0.333333 -0.333333      1.000000
 -0.333333 -0.333333 -0.333333      1.000000
 
 Following cartesian coordinates:
            Coordinates               Weight
  0.000000  0.000000  0.000000      1.000000
  0.026507 -0.000003 -0.000290      1.000000
 -0.026507  0.000003  0.000290      1.000000
 -0.000004  0.026758 -0.000000      1.000000
  0.026503  0.026755 -0.000290      1.000000
 -0.026511  0.026760  0.000290      1.000000
  0.000004 -0.026758  0.000000      1.000000
  0.026511 -0.026760 -0.000290      1.000000
 -0.026503 -0.026755  0.000290      1.000000
 -0.000287  0.000002  0.026152      1.000000
  0.026220 -0.000001  0.025862      1.000000
 -0.026794  0.000004  0.026442      1.000000
 -0.000291  0.026759  0.026152      1.000000
  0.026215  0.026757  0.025862      1.000000
 -0.026798  0.026762  0.026442      1.000000
 -0.000283 -0.026756  0.026152      1.000000
  0.026224 -0.026759  0.025862      1.000000
 -0.026790 -0.026753  0.026442      1.000000
  0.000287 -0.000002 -0.026152      1.000000
  0.026794 -0.000004 -0.026442      1.000000
 -0.026220  0.000001 -0.025862      1.000000
  0.000283  0.026756 -0.026152      1.000000
  0.026790  0.026753 -0.026442      1.000000
 -0.026224  0.026759 -0.025862      1.000000
  0.000291 -0.026759 -0.026152      1.000000
  0.026798 -0.026762 -0.026442      1.000000
 -0.026215 -0.026757 -0.025862      1.000000
 


--------------------------------------------------------------------------------------------------------




 Dimension of arrays:
   k-points           NKPTS =     27   k-points in BZ     NKDIM =     27   number of bands    NBANDS=    600
   number of dos      NEDOS =    301   number of ions     NIONS =     96
   non local maximal  LDIM  =      6   non local SUM 2l+1 LMDIM =     18
   total plane-waves  NPLWV = ******
   max r-space proj   IRMAX =      1   max aug-charges    IRDMAX= 314103
   dimension x,y,z NGX =   112 NGY =  108 NGZ =  112
   dimension x,y,z NGXF=   224 NGYF=  216 NGZF=  224
   support grid    NGXF=   448 NGYF=  432 NGZF=  448
   ions per type =               8   8  48   8  24
 NGX,Y,Z   is equivalent  to a cutoff of  14.80, 14.41, 14.61 a.u.
 NGXF,Y,Z  is equivalent  to a cutoff of  29.61, 28.83, 29.21 a.u.


 I would recommend the setting:
   dimension x,y,z NGX =   109 NGY =  107 NGZ =  110
 SYSTEM =  MAPbI3-Cubic                            
 POSCAR =  C N H Pb I                              

 Startparameter for this run:
   NWRITE =      2    write-flag & timer
   PREC   = accura    normal or accurate (medium, high low for compatibility)
   ISTART =      0    job   : 0-new  1-cont  2-samecut
   ICHARG =      2    charge: 1-file 2-atom 10-const
   ISPIN  =      1    spin polarized calculation?
   LNONCOLLINEAR =      T non collinear calculations
   LSORBIT =      T    spin-orbit coupling
   INIWAV =      1    electr: 0-lowe 1-rand  2-diag
   LASPH  =      F    aspherical Exc in radial PAW
   METAGGA=      F    non-selfconsistent MetaGGA calc.

 Electronic Relaxation 1
   ENCUT  =  700.0 eV  51.45 Ry    7.17 a.u.  27.13 26.87 27.50*2*pi/ulx,y,z
   ENINI  =  700.0     initial cutoff
   ENAUG  =  644.9 eV  augmentation charge cutoff
   NELM   =     60;   NELMIN=  2; NELMDL= -5     # of ELM steps 
   EDIFF  = 0.1E-07   stopping-criterion for ELM
   LREAL  =      F    real-space projection
   NLSPLINE    = F    spline interpolate recip. space projectors
   LCOMPAT=      F    compatible to vasp.4.4
   GGA_COMPAT  = T    GGA compatible to vasp.4.4-vasp.4.6
   LMAXPAW     = -100 max onsite density
   LMAXMIX     =    2 max onsite mixed and CHGCAR
   VOSKOWN=      0    Vosko Wilk Nusair interpolation
   ROPT   =    0.00000   0.00000   0.00000   0.00000
   ROPT   =    0.00000
 Ionic relaxation
   EDIFFG = 0.1E-06   stopping-criterion for IOM
   NSW    =      0    number of steps for IOM
   NBLOCK =      1;   KBLOCK =      1    inner block; outer block 
   IBRION =     -1    ionic relax: 0-MD 1-quasi-New 2-CG
   NFREE  =      0    steps in history (QN), initial steepest desc. (CG)
   ISIF   =      2    stress and relaxation
   IWAVPR =     10    prediction:  0-non 1-charg 2-wave 3-comb
   ISYM   =      2    0-nonsym 1-usesym 2-fastsym
   LCORR  =      T    Harris-Foulkes like correction to forces

   POTIM  = 0.5000    time-step for ionic-motion
   TEIN   =    0.0    initial temperature
   TEBEG  =    0.0;   TEEND  =   0.0 temperature during run
   SMASS  =  -3.00    Nose mass-parameter (am)
   estimated Nose-frequenzy (Omega)   =  0.10E-29 period in steps =****** mass=  -0.362E-26a.u.
   SCALEE = 1.0000    scale energy and forces
   NPACO  =    256;   APACO  = 16.0  distance and # of slots for P.C.
   PSTRESS=    0.0 pullay stress

  Mass of Ions in am
   POMASS =  12.01 14.00  1.00207.20126.90
  Ionic Valenz
   ZVAL   =   4.00  5.00  1.00 14.00  7.00
  Atomic Wigner-Seitz radii
   RWIGS  =  -1.00 -1.00 -1.00 -1.00 -1.00
  virtual crystal weights 
   VCA    =   1.00  1.00  1.00  1.00  1.00
   NELECT =     400.0000    total number of electrons
   NUPDOWN=      -1.0000    fix difference up-down

 DOS related values:
   EMIN   =  10.00;   EMAX   =-10.00  energy-range for DOS
   EFERMI =   0.00
   ISMEAR =     0;   SIGMA  =   0.00  broadening in eV -4-tet -1-fermi 0-gaus

 Electronic relaxation 2 (details)
   IALGO  =     38    algorithm
   LDIAG  =      T    sub-space diagonalisation (order eigenvalues)
   LSUBROT=      F    optimize rotation matrix (better conditioning)
   TURBO    =      0    0=normal 1=particle mesh
   IRESTART =      0    0=no restart 2=restart with 2 vectors
   NREBOOT  =      0    no. of reboots
   NMIN     =      0    reboot dimension
   EREF     =   0.00    reference energy to select bands
   IMIX   =      4    mixing-type and parameters
     AMIX     =   0.40;   BMIX     =  1.00
     AMIX_MAG =   1.60;   BMIX_MAG =  1.00
     AMIN     =   0.10
     WC   =   100.;   INIMIX=   1;  MIXPRE=   1;  MAXMIX= -45

 Intra band minimization:
   WEIMIN = 0.0000     energy-eigenvalue tresh-hold
   EBREAK =  0.42E-11  absolut break condition
   DEPER  =   0.30     relativ break condition  

   TIME   =   0.40     timestep for ELM

  volume/ion in A,a.u.               =      20.80       140.38
  Fermi-wavevector in a.u.,A,eV,Ry     =   0.957863  1.810099 12.483376  0.917502
  Thomas-Fermi vector in A             =   2.086919
 
 Write flags
   LWAVE  =      F    write WAVECAR
   LCHARG =      F    write CHGCAR
   LVTOT  =      F    write LOCPOT, total local potential
   LVHAR  =      F    write LOCPOT, Hartree potential only
   LELF   =      F    write electronic localiz. function (ELF)
   LORBIT =      0    0 simple, 1 ext, 2 COOP (PROOUT)


 Dipole corrections
   LMONO  =      F    monopole corrections only (constant potential shift)
   LDIPOL =      F    correct potential (dipole corrections)
   IDIPOL =      0    1-x, 2-y, 3-z, 4-all directions 
   EPSILON=  1.0000000 bulk dielectric constant

 Core level calculations are selected ICORELEVEL =  1
 Exchange correlation treatment:
   GGA     =    PS    GGA type
   LEXCH   =    14    internal setting for exchange type
   VOSKOWN=      0    Vosko Wilk Nusair interpolation
   LHFCALC =     F    Hartree Fock is set to
   LHFONE  =     F    Hartree Fock one center treatment
   AEXX    =    0.0000 exact exchange contribution

 Linear response parameters
   LEPSILON=     F    determine dielectric tensor
   LRPA    =     F    only Hartree local field effects (RPA)
   LNABLA  =     F    use nabla operator in PAW spheres
   LVEL    =     F    velocity operator in full k-point grid
   LINTERFAST=   F  fast interpolation
   KINTER  =     0    interpolate to denser k-point grid
   CSHIFT  =0.1000    complex shift for real part using Kramers Kronig
   OMEGAMAX=  -1.0    maximum frequency
   DEG_THRESHOLD= 0.2000000E-02 threshold for treating states as degnerate
   RTIME   =    0.100 relaxation time in fs

 Orbital magnetization related:
   ORBITALMAG=     F  switch on orbital magnetization
   LCHIMAG   =     F  perturbation theory with respect to B field
   DQ        =  0.001000  dq finite difference perturbation B field



--------------------------------------------------------------------------------------------------------


 Static calculation
 charge density and potential will be updated during run
 non collinear spin polarized calculation
 Variant of blocked Davidson
 Davidson routine will perform the subspace rotation
 perform sub-space diagonalisation
    after iterative eigenvector-optimisation
 modified Broyden-mixing scheme, WC =      100.0
 initial mixing is a Kerker type mixing with AMIX =  0.4000 and BMIX =      1.0000
 Hartree-type preconditioning will be used
 using additional bands          400
 reciprocal scheme for non local part
 use partial core corrections
 calculate Harris-corrections to forces 
   (improved forces if not selfconsistent)
 use gradient corrections 
 use of overlap-Matrix (Vanderbilt PP)
 Gauss-broadening in eV      SIGMA  =   0.00


--------------------------------------------------------------------------------------------------------


  energy-cutoff  :      700.00
  volume of cell :     1996.98
      direct lattice vectors                 reciprocal lattice vectors
    12.576837428  0.001915912  0.138198793     0.079520802 -0.000007684 -0.000869670
     0.001195632 12.457538083 -0.000746413    -0.000012224  0.080272684 -0.000000427
     0.139410704  0.000089045 12.747420625    -0.000862111  0.000004784  0.078456671

  length of vectors
    12.577596840 12.457538162 12.748182927     0.079525558  0.080272685  0.078461408


 
 k-points in units of 2pi/SCALE and weight: Automatic 3x3x3                         
   0.00000000  0.00000000  0.00000000       0.037
   0.02650693 -0.00000256 -0.00028989       0.037
  -0.02650693  0.00000256  0.00028989       0.037
  -0.00000407  0.02675756 -0.00000014       0.037
   0.02650286  0.02675500 -0.00029003       0.037
  -0.02651101  0.02676012  0.00028975       0.037
   0.00000407 -0.02675756  0.00000014       0.037
   0.02651101 -0.02676012 -0.00028975       0.037
  -0.02650286 -0.02675500  0.00029003       0.037
  -0.00028737  0.00000159  0.02615222       0.037
   0.02621956 -0.00000097  0.02586233       0.037
  -0.02679430  0.00000416  0.02644211       0.037
  -0.00029144  0.02675916  0.02615208       0.037
   0.02621549  0.02675659  0.02586219       0.037
  -0.02679838  0.02676172  0.02644197       0.037
  -0.00028330 -0.02675597  0.02615237       0.037
   0.02622364 -0.02675853  0.02586248       0.037
  -0.02679023 -0.02675341  0.02644226       0.037
   0.00028737 -0.00000159 -0.02615222       0.037
   0.02679430 -0.00000416 -0.02644211       0.037
  -0.02621956  0.00000097 -0.02586233       0.037
   0.00028330  0.02675597 -0.02615237       0.037
   0.02679023  0.02675341 -0.02644226       0.037
  -0.02622364  0.02675853 -0.02586248       0.037
   0.00029144 -0.02675916 -0.02615208       0.037
   0.02679838 -0.02676172 -0.02644197       0.037
  -0.02621549 -0.02675659 -0.02586219       0.037
 
 k-points in reciprocal lattice and weights: Automatic 3x3x3                         
   0.00000000  0.00000000  0.00000000       0.037
   0.33333333 -0.00000000 -0.00000000       0.037
  -0.33333333  0.00000000  0.00000000       0.037
   0.00000000  0.33333333 -0.00000000       0.037
   0.33333333  0.33333333  0.00000000       0.037
  -0.33333333  0.33333333  0.00000000       0.037
  -0.00000000 -0.33333333  0.00000000       0.037
   0.33333333 -0.33333333 -0.00000000       0.037
  -0.33333333 -0.33333333 -0.00000000       0.037
   0.00000000  0.00000000  0.33333333       0.037
   0.33333333  0.00000000  0.33333333       0.037
  -0.33333333  0.00000000  0.33333333       0.037
   0.00000000  0.33333333  0.33333333       0.037
   0.33333333  0.33333333  0.33333333       0.037
  -0.33333333  0.33333333  0.33333333       0.037
   0.00000000 -0.33333333  0.33333333       0.037
   0.33333333 -0.33333333  0.33333333       0.037
  -0.33333333 -0.33333333  0.33333333       0.037
   0.00000000  0.00000000 -0.33333333       0.037
   0.33333333 -0.00000000 -0.33333333       0.037
  -0.33333333 -0.00000000 -0.33333333       0.037
  -0.00000000  0.33333333 -0.33333333       0.037
   0.33333333  0.33333333 -0.33333333       0.037
  -0.33333333  0.33333333 -0.33333333       0.037
  -0.00000000 -0.33333333 -0.33333333       0.037
   0.33333333 -0.33333333 -0.33333333       0.037
  -0.33333333 -0.33333333 -0.33333333       0.037
 
 position of ions in fractional coordinates (direct lattice) 
   0.19765673  0.24985609  0.22861587
   0.69633153  0.24996046  0.22921484
   0.19633153  0.74996046  0.22921484
   0.69765673  0.74985609  0.22861587
   0.19633153  0.24996046  0.72921484
   0.69765673  0.24985609  0.72861587
   0.19765673  0.74985609  0.72861587
   0.69633153  0.74996046  0.72921484
   0.31066372  0.24997012  0.26129877
   0.79841072  0.25003717  0.28646982
   0.29841072  0.75003717  0.28646982
   0.81066372  0.74997012  0.26129877
   0.29841072  0.25003717  0.78646982
   0.81066372  0.24997012  0.76129877
   0.31066372  0.74997012  0.76129877
   0.79841072  0.75003717  0.78646982
   0.19557101  0.24976917  0.14186644
   0.71457932  0.24987302  0.14391081
   0.21457932  0.74987302  0.14391081
   0.69557101  0.74976917  0.14186644
   0.21457932  0.24987302  0.64391081
   0.69557101  0.24976917  0.64186644
   0.19557101  0.74976917  0.64186644
   0.71457932  0.74987302  0.64391081
   0.15780406  0.32222491  0.25983931
   0.65087155  0.32247947  0.25119133
   0.15087155  0.82247947  0.25119133
   0.65780406  0.82222491  0.25983931
   0.15087155  0.32247947  0.75119133
   0.65780406  0.32222491  0.75983931
   0.15780406  0.82222491  0.75983931
   0.65087155  0.82247947  0.75119133
   0.15795308  0.17748137  0.25996423
   0.65093259  0.17747077  0.25133719
   0.15093259  0.67747077  0.25133719
   0.65795308  0.67748137  0.25996423
   0.15093259  0.17747077  0.75133719
   0.65795308  0.17748137  0.75996423
   0.15795308  0.67748137  0.75996423
   0.65093259  0.67747077  0.75133719
   0.35183586  0.31777541  0.23357566
   0.84443329  0.31797316  0.26793732
   0.34443329  0.81797316  0.26793732
   0.85183586  0.81777541  0.23357566
   0.34443329  0.31797316  0.76793732
   0.85183586  0.31777541  0.73357566
   0.35183586  0.81777541  0.73357566
   0.84443329  0.81797316  0.76793732
   0.35195900  0.18217347  0.23366406
   0.84445160  0.18203631  0.26811774
   0.34445160  0.68203631  0.26811774
   0.85195900  0.68217347  0.23366406
   0.34445160  0.18203631  0.76811774
   0.85195900  0.18217347  0.73366406
   0.35195900  0.68217347  0.73366406
   0.84445160  0.68203631  0.76811774
   0.31974821  0.25002450  0.34340664
   0.78659193  0.25016254  0.36781185
   0.28659193  0.75016254  0.36781185
   0.81974821  0.75002450  0.34340664
   0.28659193  0.25016254  0.86781185
   0.81974821  0.25002450  0.84340664
   0.31974821  0.75002450  0.84340664
   0.78659193  0.75016254  0.86781185
   0.47243860  0.49835262  0.48880709
   0.97244496  0.50162697  0.48881580
   0.47244496  0.00162697  0.48881580
   0.97243860  0.99835262  0.48880709
   0.47244496  0.50162697  0.98881580
   0.97243860  0.49835262  0.98880709
   0.47243860  0.99835262  0.98880709
   0.97244496  0.00162697  0.98881580
   0.45470545  0.50338010  0.23757468
   0.95478190  0.49660200  0.23757081
   0.45478190  0.99660200  0.23757081
   0.95470545  0.00338010  0.23757468
   0.45478190  0.49660200  0.73757081
   0.95470545  0.50338010  0.73757468
   0.45470545  0.00338010  0.73757468
   0.95478190  0.99660200  0.73757081
   0.47476378  0.24997297  0.01070959
   0.92450710  0.24998505  0.01295485
   0.42450710  0.74998505  0.01295485
   0.97476378  0.74997297  0.01070959
   0.42450710  0.24998505  0.51295485
   0.97476378  0.24997297  0.51070959
   0.47476378  0.74997297  0.51070959
   0.92450710  0.74998505  0.51295485
   0.21616521  0.52882231  0.46126980
   0.71617767  0.47117257  0.46120961
   0.21617767  0.97117257  0.46120961
   0.71616521  0.02882231  0.46126980
   0.21617767  0.47117257  0.96120961
   0.71616521  0.52882231  0.96126980
   0.21616521  0.02882231  0.96126980
   0.71617767  0.97117257  0.96120961
 
 position of ions in cartesian coordinates  (Angst):
   2.51806682  3.11299076  2.94139204
   8.78990235  3.11524652  3.01794361
   2.50208145  9.34305760  2.94847101
   8.80708335  9.34271776  3.01011823
   2.57118899  3.11433309  9.32255453
   8.87619088  3.11399324  9.38420175
   2.58836999  9.34180432  9.31472914
   8.86020552  9.34406008  9.39128072
   3.94389376  3.11463070  3.37363210
  10.08171777  3.11640271  3.76190410
   3.79389687  9.34421380  3.69243149
  10.23291029  9.34435770  3.44235829
   3.86300441  3.11548928 10.06651501
  10.30201783  3.11563318  9.81644181
   4.01419693  9.34344426  9.74696921
  10.15202094  9.34521628 10.13524120
   2.47974118  3.11189627  1.83527239
   9.00750941  3.11418458  1.93305918
   2.71968851  9.34199567  1.86358658
   8.76875771  9.34162327  1.90399858
   2.78879605  3.11327115  8.23767010
   8.83786524  3.11289875  8.27808210
   2.55004435  9.34070984  8.20860950
   9.07781258  9.34299815  8.30639629
   2.02128564  4.01445452  3.33384877
   8.22131005  4.01856962  3.29175051
   1.93348915 10.24638070  3.22227791
   8.31030217 10.24418152  3.40257496
   2.00259669  4.01765619  9.59636143
   8.37940971  4.01545700  9.77665848
   2.09158881 10.24326808  9.70718587
   8.29161322 10.24738318  9.66508762
   2.02300421  2.21130675  3.33556981
   8.22192461  2.21211843  3.29372645
   1.93410371  8.43992951  3.22425385
   8.31202074  8.44103374  3.40429600
   2.00321124  2.21120499  9.59833737
   8.38112828  2.21230922  9.77837952
   2.09330738  8.44012031  9.70890692
   8.29222777  8.44093199  9.66706356
   4.45792534  3.95939414  3.02587334
  10.65803374  3.96280443  3.53197201
   4.37021284 10.19061552  3.46249941
  10.74694187 10.18912114  3.09459953
   4.43932038  3.96189100  9.83658293
  10.81604940  3.96039662  9.46868305
   4.52822851 10.18820771  9.39921045
  10.72833691 10.19161800  9.90530912
   4.45932427  2.27012804  3.02711841
  10.65812657  2.26936600  3.53437590
   4.37030567  8.49717708  3.46490330
  10.74834080  8.49985504  3.09584460
   4.43941321  2.26845256  9.83898682
  10.81744833  2.27113052  9.46992812
   4.52962743  8.49894161  9.40045552
  10.72842974  8.49817956  9.90771301
   4.06959482  3.11533294  4.42155109
   9.94441485  3.11794918  4.79717168
   3.65659395  9.34576027  4.72769908
  10.35861135  9.34505994  4.49027728
   3.72570149  3.11703575 11.10178260
  10.42771888  3.11633542 10.86436080
   4.13989798  9.34414650 10.79488819
  10.01471802  9.34676275 11.17050879
   6.01052421  6.20919540  6.29594808
  12.29902803  6.25094374  6.36515693
   6.01001150  0.02121675  6.29643074
  12.29954074 12.43892240  6.36467427
   6.08031466  6.25003031 12.66976784
  12.36864828  6.21019788 12.73875779
   6.08082738 12.43800896 12.66928519
  12.36813556  0.02221922 12.73924045
   5.75247884  6.27176906  3.09092838
  12.04185038  6.18828878  3.15999402
   5.75402948 12.41609987  3.09052141
  12.04029973  0.04395798  3.16040098
   5.82313702  6.18737535  9.46460493
  12.11060290  6.27277154  9.53373808
   5.82158637  0.04304454  9.46501189
  12.11215355 12.41710235  9.53333112
   5.97281879  3.11495841  0.20194479
  11.62948042  3.11597067  0.29272010
   5.34165952  9.34378175  0.22324749
  12.26183532  9.34468541  0.27067098
   5.41076705  3.11505723  6.59733101
  12.33094286  3.11596089  6.64475450
   6.04312196  9.34377197  6.57528189
  11.69978358  9.34478423  6.66605720
   2.78361294  6.58827926  5.90947916
   9.07211098  5.87106337  5.97785606
   2.78429008 12.09887446  5.90838346
   9.07143384  0.36046818  5.97895177
   2.85339762  5.87014994 12.28246698
   9.14173701  6.58928174 12.35228887
   2.85272048  0.35955474 12.28356268
   9.14241415 12.09987694 12.35119317
 
 Euler angles ALPHA=     0.0000000  BETA=     0.0000000

 transformation matrix from SAXIS to cartesian coordinates
 ---------------------------------------------------------
     1.0000000 m_x     0.0000000 m_y     0.0000000 m_z
     0.0000000 m_x     1.0000000 m_y     0.0000000 m_z
     0.0000000 m_x     0.0000000 m_y     1.0000000 m_z

 transformation matrix from cartesian coordinates to SAXIS
 ---------------------------------------------------------
     1.0000000 m_x     0.0000000 m_y     0.0000000 m_z
     0.0000000 m_x     1.0000000 m_y     0.0000000 m_z
     0.0000000 m_x     0.0000000 m_y     1.0000000 m_z




--------------------------------------------------------------------------------------------------------


 k-point  1 :   0.0000 0.0000 0.0000  plane waves:  168014
 k-point  2 :   0.3333-0.0000-0.0000  plane waves:  168006
 k-point  3 :  -0.3333 0.0000 0.0000  plane waves:  168006
 k-point  4 :   0.0000 0.3333-0.0000  plane waves:  167990
 k-point  5 :   0.3333 0.3333 0.0000  plane waves:  168036
 k-point  6 :  -0.3333 0.3333 0.0000  plane waves:  168038
 k-point  7 :  -0.0000-0.3333 0.0000  plane waves:  167990
 k-point  8 :   0.3333-0.3333-0.0000  plane waves:  168038
 k-point  9 :  -0.3333-0.3333-0.0000  plane waves:  168036
 k-point 10 :   0.0000 0.0000 0.3333  plane waves:  167920
 k-point 11 :   0.3333 0.0000 0.3333  plane waves:  167874
 k-point 12 :  -0.3333 0.0000 0.3333  plane waves:  167964
 k-point 13 :   0.0000 0.3333 0.3333  plane waves:  167968
 k-point 14 :   0.3333 0.3333 0.3333  plane waves:  168024
 k-point 15 :  -0.3333 0.3333 0.3333  plane waves:  167940
 k-point 16 :   0.0000-0.3333 0.3333  plane waves:  167954
 k-point 17 :   0.3333-0.3333 0.3333  plane waves:  168026
 k-point 18 :  -0.3333-0.3333 0.3333  plane waves:  167946
 k-point 19 :   0.0000 0.0000-0.3333  plane waves:  167920
 k-point 20 :   0.3333-0.0000-0.3333  plane waves:  167964
 k-point 21 :  -0.3333-0.0000-0.3333  plane waves:  167874
 k-point 22 :  -0.0000 0.3333-0.3333  plane waves:  167954
 k-point 23 :   0.3333 0.3333-0.3333  plane waves:  167946
 k-point 24 :  -0.3333 0.3333-0.3333  plane waves:  168026
 k-point 25 :  -0.0000-0.3333-0.3333  plane waves:  167968
 k-point 26 :   0.3333-0.3333-0.3333  plane waves:  167940
 k-point 27 :  -0.3333-0.3333-0.3333  plane waves:  168024

 maximum and minimum number of plane-waves per node :      7122     6820

 maximum number of plane-waves:    168038
 maximum index in each direction: 
   IXMAX=   27   IYMAX=   27   IZMAX=   27
   IXMIN=  -27   IYMIN=  -27   IZMIN=  -27

 NGX is ok and might be reduce to 110
 WARNING: aliasing errors must be expected set NGY to 110 to avoid them
 NGZ is ok and might be reduce to 110
 aliasing errors are usually negligible using standard VASP settings
 and one can safely disregard these warnings

 parallel 3D FFT for wavefunctions:
    minimum data exchange during FFTs selected (reduces bandwidth)
 parallel 3D FFT for charge:
    minimum data exchange during FFTs selected (reduces bandwidth)


 total amount of memory used by VASP on root node   392927. kBytes
========================================================================

   base      :      30000. kBytes
   nonl-proj :      73667. kBytes
   fftplans  :      22714. kBytes
   grid      :      35610. kBytes
   one-center:        248. kBytes
   wavefun   :     230688. kBytes
 
     INWAV:  cpu time    0.0000: real time    0.0000
 Broyden mixing: mesh for mixing (old mesh)
   NGX = 55   NGY = 53   NGZ = 55
  (NGX  =224   NGY  =216   NGZ  =224)
  gives a total of 160325 points

 initial charge density was supplied:
 charge density of overlapping atoms calculated
 number of electron     400.0000000 magnetization      96.0000000     96.0000000     96.0000000
 keeping initial charge density in first step


--------------------------------------------------------------------------------------------------------


 Maximum index for augmentation-charges         5392 (set IRDMAX)


--------------------------------------------------------------------------------------------------------


 First call to EWALD:  gamma=   0.141
 Maximum number of real-space cells 3x 3x 3
 Maximum number of reciprocal cells 3x 3x 3

 FEWALD executed in parallel
    FEWALD:  cpu time    0.0040: real time    0.0047


----------------------------------------- Iteration    1(   1)  ---------------------------------------


    POTLOK:  cpu time    0.6160: real time    0.6160
    SETDIJ:  cpu time    2.1761: real time    2.1800
     EDDAV:  cpu time  253.1038: real time  253.2686
       DOS:  cpu time    0.0080: real time    0.0088
    --------------------------------------------
      LOOP:  cpu time  255.9080: real time  256.1242

 eigenvalue-minimisations  : 32544
 total energy-change (2. order) : 0.4223783E+04  (-0.1929129E+05)
 number of electron     400.0000000 magnetization      96.0000000     96.0000000     96.0000000
 augmentation part      400.0000000 magnetization      96.0000000     96.0000000     96.0000000

 Free energy of the ion-electron system (eV)
  ---------------------------------------------------
  alpha Z        PSCENC =       370.05370877
  Ewald energy   TEWEN  =    -15549.63203132
  -Hartree energ DENC   =     -8105.68546850
  -exchange      EXHF   =         0.00000000
  -V(xc)+E(xc)   XCENC  =       672.63895671
  PAW double counting   =     20172.90621935   -19413.33347658
  entropy T*S    EENTRO =        -0.00002801
  eigenvalues    EBANDS =      1327.82885587
  atomic energy  EATOM  =     24749.00668030
  Solvation  Ediel_sol  =         0.00000000
  ---------------------------------------------------
  free energy    TOTEN  =      4223.78341658 eV

  energy without entropy =     4223.78344459  energy(sigma->0) =     4223.78343058


--------------------------------------------------------------------------------------------------------




----------------------------------------- Iteration    1(   2)  ---------------------------------------


     EDDAV:  cpu time  270.0489: real time  270.2271
       DOS:  cpu time    0.0120: real time    0.0095
    --------------------------------------------
      LOOP:  cpu time  270.0649: real time  270.2666

 eigenvalue-minimisations  : 35592
 total energy-change (2. order) :-0.3380764E+04  (-0.3131153E+04)
 number of electron     400.0000000 magnetization      96.0000000     96.0000000     96.0000000
 augmentation part      400.0000000 magnetization      96.0000000     96.0000000     96.0000000

 Free energy of the ion-electron system (eV)
  ---------------------------------------------------
  alpha Z        PSCENC =       370.05370877
  Ewald energy   TEWEN  =    -15549.63203132
  -Hartree energ DENC   =     -8105.68546850
  -exchange      EXHF   =         0.00000000
  -V(xc)+E(xc)   XCENC  =       672.63895671
  PAW double counting   =     20172.90621935   -19413.33347658
  entropy T*S    EENTRO =        -0.00001677
  eigenvalues    EBANDS =     -2052.93497900
  atomic energy  EATOM  =     24749.00668030
  Solvation  Ediel_sol  =         0.00000000
  ---------------------------------------------------
  free energy    TOTEN  =       843.01959295 eV

  energy without entropy =      843.01960972  energy(sigma->0) =      843.01960134


--------------------------------------------------------------------------------------------------------




----------------------------------------- Iteration    1(   3)  ---------------------------------------


     EDDAV:  cpu time  317.7759: real time  317.9841
       DOS:  cpu time    0.0080: real time    0.0081
    --------------------------------------------
      LOOP:  cpu time  317.7879: real time  318.1320

 eigenvalue-minimisations  : 43984
 total energy-change (2. order) :-0.6094926E+03  (-0.5892996E+03)
 number of electron     400.0000000 magnetization      96.0000000     96.0000000     96.0000000
 augmentation part      400.0000000 magnetization      96.0000000     96.0000000     96.0000000

 Free energy of the ion-electron system (eV)
  ---------------------------------------------------
  alpha Z        PSCENC =       370.05370877
  Ewald energy   TEWEN  =    -15549.63203132
  -Hartree energ DENC   =     -8105.68546850
  -exchange      EXHF   =         0.00000000
  -V(xc)+E(xc)   XCENC  =       672.63895671
  PAW double counting   =     20172.90621935   -19413.33347658
  entropy T*S    EENTRO =        -0.00001765
  eigenvalues    EBANDS =     -2662.42758843
  atomic energy  EATOM  =     24749.00668030
  Solvation  Ediel_sol  =         0.00000000
  ---------------------------------------------------
  free energy    TOTEN  =       233.52698264 eV

  energy without entropy =      233.52700029  energy(sigma->0) =      233.52699146


--------------------------------------------------------------------------------------------------------




----------------------------------------- Iteration    1(   4)  ---------------------------------------


     EDDAV:  cpu time  316.9318: real time  317.1364
       DOS:  cpu time    0.0080: real time    0.0092
    --------------------------------------------
      LOOP:  cpu time  316.9398: real time  317.1936

 eigenvalue-minimisations  : 44056
 total energy-change (2. order) :-0.4576999E+02  (-0.4468308E+02)
 number of electron     400.0000000 magnetization      96.0000000     96.0000000     96.0000000
 augmentation part      400.0000000 magnetization      96.0000000     96.0000000     96.0000000

 Free energy of the ion-electron system (eV)
  ---------------------------------------------------
  alpha Z        PSCENC =       370.05370877
  Ewald energy   TEWEN  =    -15549.63203132
  -Hartree energ DENC   =     -8105.68546850
  -exchange      EXHF   =         0.00000000
  -V(xc)+E(xc)   XCENC  =       672.63895671
  PAW double counting   =     20172.90621935   -19413.33347658
  entropy T*S    EENTRO =        -0.00005250
  eigenvalues    EBANDS =     -2708.19753927
  atomic energy  EATOM  =     24749.00668030
  Solvation  Ediel_sol  =         0.00000000
  ---------------------------------------------------
  free energy    TOTEN  =       187.75699695 eV

  energy without entropy =      187.75704945  energy(sigma->0) =      187.75702320


--------------------------------------------------------------------------------------------------------




----------------------------------------- Iteration    1(   5)  ---------------------------------------


     EDDAV:  cpu time  350.4499: real time  350.6820
       DOS:  cpu time    0.0080: real time    0.0069
    CHARGE:  cpu time   11.6607: real time   11.6693
    MIXING:  cpu time    0.0160: real time    0.0162
    --------------------------------------------
      LOOP:  cpu time  362.1386: real time  362.3858

 eigenvalue-minimisations  : 50528
 total energy-change (2. order) :-0.2208584E+01  (-0.2199910E+01)
 number of electron     400.0000000 magnetization      67.1962067     67.2019901     67.1998012
 augmentation part        6.9240234 magnetization      63.2585200     63.2432502     63.2496425

 Broyden mixing:
  rms(total) = 0.97745E+01    rms(broyden)= 0.97744E+01
  rms(prec ) = 0.10271E+02
  weight for this iteration     100.00

 Free energy of the ion-electron system (eV)
  ---------------------------------------------------
  alpha Z        PSCENC =       370.05370877
  Ewald energy   TEWEN  =    -15549.63203132
  -Hartree energ DENC   =     -8105.68546850
  -exchange      EXHF   =         0.00000000
  -V(xc)+E(xc)   XCENC  =       672.63895671
  PAW double counting   =     20172.90621935   -19413.33347658
  entropy T*S    EENTRO =        -0.00002809
  eigenvalues    EBANDS =     -2710.40614795
  atomic energy  EATOM  =     24749.00668030
  Solvation  Ediel_sol  =         0.00000000
  ---------------------------------------------------
  free energy    TOTEN  =       185.54841268 eV

  energy without entropy =      185.54844077  energy(sigma->0) =      185.54842672


--------------------------------------------------------------------------------------------------------




----------------------------------------- Iteration    1(   6)  ---------------------------------------


    POTLOK:  cpu time    0.6120: real time    0.6146
    SETDIJ:  cpu time    2.1521: real time    2.1503
     EDDAV:  cpu time  277.1293: real time  277.3160
       DOS:  cpu time    0.0040: real time    0.0072
    CHARGE:  cpu time   12.1088: real time   12.1159
    MIXING:  cpu time    0.0160: real time    0.0153
    --------------------------------------------
      LOOP:  cpu time  292.0303: real time  292.4981

 eigenvalue-minimisations  : 37232
 total energy-change (2. order) :-0.1303485E+03  (-0.1513526E+03)
 number of electron     400.0000000 magnetization      50.3915684     50.3939534     50.3942746
 augmentation part        5.9722526 magnetization      51.2406693     51.2506788     51.2421938

 Broyden mixing:
  rms(total) = 0.48897E+01    rms(broyden)= 0.48896E+01
  rms(prec ) = 0.50750E+01
  weight for this iteration     100.00

 eigenvalues of (default mixing * dielectric matrix)
  average eigenvalue GAMMA=   0.7560
  0.7560

 Free energy of the ion-electron system (eV)
  ---------------------------------------------------
  alpha Z        PSCENC =       370.05370877
  Ewald energy   TEWEN  =    -15549.63203132
  -Hartree energ DENC   =     -8459.77186040
  -exchange      EXHF   =         0.00000000
  -V(xc)+E(xc)   XCENC  =       688.95789521
  PAW double counting   =     24171.41657907   -23434.62795341
  entropy T*S    EENTRO =        -0.00000794
  eigenvalues    EBANDS =     -2480.20304781
  atomic energy  EATOM  =     24749.00668030
  Solvation  Ediel_sol  =         0.00000000
  ---------------------------------------------------
  free energy    TOTEN  =        55.19996246 eV

  energy without entropy =       55.19997041  energy(sigma->0) =       55.19996643


--------------------------------------------------------------------------------------------------------




----------------------------------------- Iteration    1(   7)  ---------------------------------------


    POTLOK:  cpu time    0.6120: real time    0.6130
    SETDIJ:  cpu time    2.1561: real time    2.1569
     EDDAV:  cpu time  290.2501: real time  290.4460
       DOS:  cpu time    0.0120: real time    0.0085
    CHARGE:  cpu time   12.0528: real time   12.0619
    MIXING:  cpu time    0.0160: real time    0.0160
    --------------------------------------------
      LOOP:  cpu time  305.1031: real time  305.3419

 eigenvalue-minimisations  : 38968
 total energy-change (2. order) :-0.1487540E+03  (-0.1593123E+02)
 number of electron     400.0000000 magnetization      34.4381846     34.4370401     34.4417737
 augmentation part        5.6049874 magnetization      35.5056767     35.5156789     35.5018120

 Broyden mixing:
  rms(total) = 0.28393E+01    rms(broyden)= 0.28392E+01
  rms(prec ) = 0.29953E+01
  weight for this iteration     100.00

 eigenvalues of (default mixing * dielectric matrix)
  average eigenvalue GAMMA=   0.8393
  0.8393  0.8393

 Free energy of the ion-electron system (eV)
  ---------------------------------------------------
  alpha Z        PSCENC =       370.05370877
  Ewald energy   TEWEN  =    -15549.63203132
  -Hartree energ DENC   =     -8508.20890783
  -exchange      EXHF   =         0.00000000
  -V(xc)+E(xc)   XCENC  =       591.85281166
  PAW double counting   =     26600.50257677   -25863.64472217
  entropy T*S    EENTRO =        -0.00001851
  eigenvalues    EBANDS =     -2483.48416257
  atomic energy  EATOM  =     24749.00668030
  Solvation  Ediel_sol  =         0.00000000
  ---------------------------------------------------
  free energy    TOTEN  =       -93.55406491 eV

  energy without entropy =      -93.55404640  energy(sigma->0) =      -93.55405565


--------------------------------------------------------------------------------------------------------




----------------------------------------- Iteration    1(   8)  ---------------------------------------


    POTLOK:  cpu time    0.6680: real time    0.6718
    SETDIJ:  cpu time    2.1721: real time    2.1724
     EDDAV:  cpu time  276.6973: real time  276.8803
       DOS:  cpu time    0.0080: real time    0.0074
    CHARGE:  cpu time   12.1208: real time   12.1270
    MIXING:  cpu time    0.0160: real time    0.0162
    --------------------------------------------
      LOOP:  cpu time  291.6862: real time  291.9518

 eigenvalue-minimisations  : 37608
 total energy-change (2. order) :-0.1080914E+03  (-0.6515793E+01)
 number of electron     400.0000000 magnetization      15.9995369     15.9919006     15.9997173
 augmentation part        6.6577081 magnetization      17.1864840     17.1940815     17.1929761

 Broyden mixing:
  rms(total) = 0.18417E+01    rms(broyden)= 0.18417E+01
  rms(prec ) = 0.18977E+01
  weight for this iteration     100.00

 eigenvalues of (default mixing * dielectric matrix)
  average eigenvalue GAMMA=   1.0037
  1.4018  0.9784  0.6310

 Free energy of the ion-electron system (eV)
  ---------------------------------------------------
  alpha Z        PSCENC =       370.05370877
  Ewald energy   TEWEN  =    -15549.63203132
  -Hartree energ DENC   =     -8542.27146375
  -exchange      EXHF   =         0.00000000
  -V(xc)+E(xc)   XCENC  =       529.22360694
  PAW double counting   =     28567.31796797   -27832.31371969
  entropy T*S    EENTRO =        -0.00000000
  eigenvalues    EBANDS =     -2493.03025602
  atomic energy  EATOM  =     24749.00668030
  Solvation  Ediel_sol  =         0.00000000
  ---------------------------------------------------
  free energy    TOTEN  =      -201.64550681 eV

  energy without entropy =     -201.64550681  energy(sigma->0) =     -201.64550681


--------------------------------------------------------------------------------------------------------




----------------------------------------- Iteration    1(   9)  ---------------------------------------


    POTLOK:  cpu time    0.6720: real time    0.6742
    SETDIJ:  cpu time    2.1841: real time    2.1848
     EDDAV:  cpu time  270.9529: real time  271.1323
       DOS:  cpu time    0.0040: real time    0.0053
    CHARGE:  cpu time   12.1328: real time   12.1404
    MIXING:  cpu time    0.0160: real time    0.0166
    --------------------------------------------
      LOOP:  cpu time  285.9659: real time  286.1655

 eigenvalue-minimisations  : 36632
 total energy-change (2. order) :-0.1316660E+03  (-0.1229877E+02)
 number of electron     400.0000000 magnetization      10.4110041     10.4010785     10.4078888
 augmentation part        7.9230421 magnetization      11.2289248     11.2379521     11.2402628

 Broyden mixing:
  rms(total) = 0.92274E+00    rms(broyden)= 0.92273E+00
  rms(prec ) = 0.97594E+00
  weight for this iteration     100.00

 eigenvalues of (default mixing * dielectric matrix)
  average eigenvalue GAMMA=   1.0785
  1.8141  1.1110  0.6944  0.6944

 Free energy of the ion-electron system (eV)
  ---------------------------------------------------
  alpha Z        PSCENC =       370.05370877
  Ewald energy   TEWEN  =    -15549.63203132
  -Hartree energ DENC   =     -8573.17194706
  -exchange      EXHF   =         0.00000000
  -V(xc)+E(xc)   XCENC  =       463.88003981
  PAW double counting   =     30593.44150774   -29859.35044892
  entropy T*S    EENTRO =         0.00000000
  eigenvalues    EBANDS =     -2527.53902402
  atomic energy  EATOM  =     24749.00668030
  Solvation  Ediel_sol  =         0.00000000
  ---------------------------------------------------
  free energy    TOTEN  =      -333.31151470 eV

  energy without entropy =     -333.31151470  energy(sigma->0) =     -333.31151470


--------------------------------------------------------------------------------------------------------




----------------------------------------- Iteration    1(  10)  ---------------------------------------


    POTLOK:  cpu time    0.6040: real time    0.6057
    SETDIJ:  cpu time    2.1521: real time    2.1540
     EDDAV:  cpu time  276.5933: real time  276.7727
       DOS:  cpu time    0.0040: real time    0.0051
    CHARGE:  cpu time   12.1008: real time   12.1081
    MIXING:  cpu time    0.0160: real time    0.0165
    --------------------------------------------
      LOOP:  cpu time  291.4742: real time  291.7183

 eigenvalue-minimisations  : 37472
 total energy-change (2. order) :-0.4772193E+02  (-0.4711940E+01)
 number of electron     400.0000000 magnetization       6.1189133      6.1110766      6.1150999
 augmentation part        8.2097262 magnetization       6.6517005      6.6508151      6.6545094

 Broyden mixing:
  rms(total) = 0.66288E+00    rms(broyden)= 0.66288E+00
  rms(prec ) = 0.73519E+00
  weight for this iteration     100.00

 eigenvalues of (default mixing * dielectric matrix)
  average eigenvalue GAMMA=   1.1369
  1.7032  1.7032  0.8318  0.8318  0.6147

 Free energy of the ion-electron system (eV)
  ---------------------------------------------------
  alpha Z        PSCENC =       370.05370877
  Ewald energy   TEWEN  =    -15549.63203132
  -Hartree energ DENC   =     -8559.54939741
  -exchange      EXHF   =         0.00000000
  -V(xc)+E(xc)   XCENC  =       442.70377494
  PAW double counting   =     30945.69702904   -30210.05024026
  entropy T*S    EENTRO =         0.00000000
  eigenvalues    EBANDS =     -2569.26296819
  atomic energy  EATOM  =     24749.00668030
  Solvation  Ediel_sol  =         0.00000000
  ---------------------------------------------------
  free energy    TOTEN  =      -381.03344413 eV

  energy without entropy =     -381.03344413  energy(sigma->0) =     -381.03344413


--------------------------------------------------------------------------------------------------------




----------------------------------------- Iteration    1(  11)  ---------------------------------------


    POTLOK:  cpu time    0.6080: real time    0.6111
    SETDIJ:  cpu time    2.1921: real time    2.1913
     EDDAV:  cpu time  274.7452: real time  274.9295
       DOS:  cpu time    0.0080: real time    0.0074
    CHARGE:  cpu time   12.0488: real time   12.0581
    MIXING:  cpu time    0.0160: real time    0.0171
    --------------------------------------------
      LOOP:  cpu time  289.6221: real time  289.9818

 eigenvalue-minimisations  : 37704
 total energy-change (2. order) :-0.2944464E+02  (-0.4064576E+01)
 number of electron     400.0000000 magnetization       3.1438161      3.1387451      3.1410677
 augmentation part        8.0864276 magnetization       3.3650516      3.3615973      3.3626083

 Broyden mixing:
  rms(total) = 0.37964E+00    rms(broyden)= 0.37964E+00
  rms(prec ) = 0.43354E+00
  weight for this iteration     100.00

 eigenvalues of (default mixing * dielectric matrix)
  average eigenvalue GAMMA=   1.2105
  2.0774  2.0774  0.9361  0.9361  0.6599  0.5764

 Free energy of the ion-electron system (eV)
  ---------------------------------------------------
  alpha Z        PSCENC =       370.05370877
  Ewald energy   TEWEN  =    -15549.63203132
  -Hartree energ DENC   =     -8507.45230256
  -exchange      EXHF   =         0.00000000
  -V(xc)+E(xc)   XCENC  =       428.05733876
  PAW double counting   =     30921.92939632   -30182.93237672
  entropy T*S    EENTRO =         0.00000000
  eigenvalues    EBANDS =     -2639.50849635
  atomic energy  EATOM  =     24749.00668030
  Solvation  Ediel_sol  =         0.00000000
  ---------------------------------------------------
  free energy    TOTEN  =      -410.47808280 eV

  energy without entropy =     -410.47808280  energy(sigma->0) =     -410.47808280


--------------------------------------------------------------------------------------------------------




----------------------------------------- Iteration    1(  12)  ---------------------------------------


    POTLOK:  cpu time    0.6080: real time    0.6081
    SETDIJ:  cpu time    2.2041: real time    2.2080
     EDDAV:  cpu time  297.1626: real time  297.3580
       DOS:  cpu time    0.0040: real time    0.0054
    CHARGE:  cpu time   12.0768: real time   12.0821
    MIXING:  cpu time    0.0160: real time    0.0179
    --------------------------------------------
      LOOP:  cpu time  312.0755: real time  312.4112

 eigenvalue-minimisations  : 41224
 total energy-change (2. order) :-0.1068496E+02  (-0.1663456E+01)
 number of electron     400.0000000 magnetization       2.5281939      2.5241387      2.5261728
 augmentation part        7.8961629 magnetization       2.5920510      2.5881256      2.5895069

 Broyden mixing:
  rms(total) = 0.25374E+00    rms(broyden)= 0.25373E+00
  rms(prec ) = 0.29496E+00
  weight for this iteration     100.00

 eigenvalues of (default mixing * dielectric matrix)
  average eigenvalue GAMMA=   1.1610
  2.0876  2.0876  0.9905  0.9905  0.6860  0.6860  0.5986

 Free energy of the ion-electron system (eV)
  ---------------------------------------------------
  alpha Z        PSCENC =       370.05370877
  Ewald energy   TEWEN  =    -15549.63203132
  -Hartree energ DENC   =     -8462.22177641
  -exchange      EXHF   =         0.00000000
  -V(xc)+E(xc)   XCENC  =       421.94802782
  PAW double counting   =     30756.18816401   -30014.60668266
  entropy T*S    EENTRO =        -0.00000000
  eigenvalues    EBANDS =     -2691.89913107
  atomic energy  EATOM  =     24749.00668030
  Solvation  Ediel_sol  =         0.00000000
  ---------------------------------------------------
  free energy    TOTEN  =      -421.16304057 eV

  energy without entropy =     -421.16304057  energy(sigma->0) =     -421.16304057


--------------------------------------------------------------------------------------------------------




----------------------------------------- Iteration    1(  13)  ---------------------------------------


    POTLOK:  cpu time    0.6040: real time    0.6050
    SETDIJ:  cpu time    2.1641: real time    2.1636
     EDDAV:  cpu time  285.9259: real time  286.1192
       DOS:  cpu time    0.0040: real time    0.0042
    CHARGE:  cpu time   12.0928: real time   12.1009
    MIXING:  cpu time    0.0200: real time    0.0173
    --------------------------------------------
      LOOP:  cpu time  300.8148: real time  301.0354

 eigenvalue-minimisations  : 39896
 total energy-change (2. order) :-0.1693649E+01  (-0.2528353E+00)
 number of electron     400.0000000 magnetization       1.6473706      1.6451668      1.6463985
 augmentation part        7.9038857 magnetization       1.6969282      1.6958487      1.6961909

 Broyden mixing:
  rms(total) = 0.20752E+00    rms(broyden)= 0.20752E+00
  rms(prec ) = 0.24574E+00
  weight for this iteration     100.00

 eigenvalues of (default mixing * dielectric matrix)
  average eigenvalue GAMMA=   1.1916
  2.2106  2.2106  1.0985  1.0985  0.8596  0.8596  0.6219  0.5732

 Free energy of the ion-electron system (eV)
  ---------------------------------------------------
  alpha Z        PSCENC =       370.05370877
  Ewald energy   TEWEN  =    -15549.63203132
  -Hartree energ DENC   =     -8449.53538388
[...]
     0.0000000     0.0000000     0.0000000     0.0000000     0.0000000     0.0000000     0.0000000
     0.0000000     0.0000000     0.0000000     0.0000000     0.0000000     0.0000000     0.0000000
     0.0000000     0.0000000     0.0000000     0.0000000     0.0000000     0.0000000     0.0000000
     0.0000000     0.0000000     0.0000000     0.0000000     0.0000000     0.0000000     0.0000000

 Ion:   82  E_soc:     -0.2789809
 l=   1
     0.0000000    -0.0478726    -0.0484719
    -0.0478726     0.0000000    -0.0431636
    -0.0484719    -0.0431636     0.0000000
 l=   2
     0.0000000    -0.0000086     0.0000000    -0.0000027     0.0000213
    -0.0000086     0.0000000     0.0000047    -0.0000024     0.0000107
     0.0000000     0.0000047     0.0000000    -0.0000034     0.0000000
    -0.0000027    -0.0000024    -0.0000034     0.0000000    -0.0000018
     0.0000213     0.0000107     0.0000000    -0.0000018     0.0000000
 l=   3
     0.0000000     0.0000000     0.0000000     0.0000000     0.0000000     0.0000000     0.0000000
     0.0000000     0.0000000     0.0000000     0.0000000     0.0000000     0.0000000     0.0000000
     0.0000000     0.0000000     0.0000000     0.0000000     0.0000000     0.0000000     0.0000000
     0.0000000     0.0000000     0.0000000     0.0000000     0.0000000     0.0000000     0.0000000
     0.0000000     0.0000000     0.0000000     0.0000000     0.0000000     0.0000000     0.0000000
     0.0000000     0.0000000     0.0000000     0.0000000     0.0000000     0.0000000     0.0000000
     0.0000000     0.0000000     0.0000000     0.0000000     0.0000000     0.0000000     0.0000000

 Ion:   83  E_soc:     -0.2789809
 l=   1
     0.0000000    -0.0478726    -0.0484719
    -0.0478726     0.0000000    -0.0431636
    -0.0484719    -0.0431636     0.0000000
 l=   2
     0.0000000    -0.0000086     0.0000000    -0.0000027     0.0000213
    -0.0000086     0.0000000     0.0000047    -0.0000024     0.0000107
     0.0000000     0.0000047     0.0000000    -0.0000034     0.0000000
    -0.0000027    -0.0000024    -0.0000034     0.0000000    -0.0000018
     0.0000213     0.0000107     0.0000000    -0.0000018     0.0000000
 l=   3
     0.0000000     0.0000000     0.0000000     0.0000000     0.0000000     0.0000000     0.0000000
     0.0000000     0.0000000     0.0000000     0.0000000     0.0000000     0.0000000     0.0000000
     0.0000000     0.0000000     0.0000000     0.0000000     0.0000000     0.0000000     0.0000000
     0.0000000     0.0000000     0.0000000     0.0000000     0.0000000     0.0000000     0.0000000
     0.0000000     0.0000000     0.0000000     0.0000000     0.0000000     0.0000000     0.0000000
     0.0000000     0.0000000     0.0000000     0.0000000     0.0000000     0.0000000     0.0000000
     0.0000000     0.0000000     0.0000000     0.0000000     0.0000000     0.0000000     0.0000000

 Ion:   84  E_soc:     -0.2810975
 l=   1
     0.0000000    -0.0487844    -0.0488772
    -0.0487844     0.0000000    -0.0429111
    -0.0488772    -0.0429111     0.0000000
 l=   2
     0.0000000    -0.0000102     0.0000000    -0.0000027     0.0000233
    -0.0000102     0.0000000     0.0000057    -0.0000022     0.0000141
     0.0000000     0.0000057     0.0000000    -0.0000031     0.0000000
    -0.0000027    -0.0000022    -0.0000031     0.0000000    -0.0000009
     0.0000233     0.0000141     0.0000000    -0.0000009     0.0000000
 l=   3
     0.0000000     0.0000000     0.0000000     0.0000000     0.0000000     0.0000000     0.0000000
     0.0000000     0.0000000     0.0000000     0.0000000     0.0000000     0.0000000     0.0000000
     0.0000000     0.0000000     0.0000000     0.0000000     0.0000000     0.0000000     0.0000000
     0.0000000     0.0000000     0.0000000     0.0000000     0.0000000     0.0000000     0.0000000
     0.0000000     0.0000000     0.0000000     0.0000000     0.0000000     0.0000000     0.0000000
     0.0000000     0.0000000     0.0000000     0.0000000     0.0000000     0.0000000     0.0000000
     0.0000000     0.0000000     0.0000000     0.0000000     0.0000000     0.0000000     0.0000000

 Ion:   85  E_soc:     -0.2789809
 l=   1
     0.0000000    -0.0478726    -0.0484719
    -0.0478726     0.0000000    -0.0431636
    -0.0484719    -0.0431636     0.0000000
 l=   2
     0.0000000    -0.0000086     0.0000000    -0.0000027     0.0000213
    -0.0000086     0.0000000     0.0000047    -0.0000024     0.0000107
     0.0000000     0.0000047     0.0000000    -0.0000034     0.0000000
    -0.0000027    -0.0000024    -0.0000034     0.0000000    -0.0000018
     0.0000213     0.0000107     0.0000000    -0.0000018     0.0000000
 l=   3
     0.0000000     0.0000000     0.0000000     0.0000000     0.0000000     0.0000000     0.0000000
     0.0000000     0.0000000     0.0000000     0.0000000     0.0000000     0.0000000     0.0000000
     0.0000000     0.0000000     0.0000000     0.0000000     0.0000000     0.0000000     0.0000000
     0.0000000     0.0000000     0.0000000     0.0000000     0.0000000     0.0000000     0.0000000
     0.0000000     0.0000000     0.0000000     0.0000000     0.0000000     0.0000000     0.0000000
     0.0000000     0.0000000     0.0000000     0.0000000     0.0000000     0.0000000     0.0000000
     0.0000000     0.0000000     0.0000000     0.0000000     0.0000000     0.0000000     0.0000000

 Ion:   86  E_soc:     -0.2810975
 l=   1
     0.0000000    -0.0487844    -0.0488772
    -0.0487844     0.0000000    -0.0429111
    -0.0488772    -0.0429111     0.0000000
 l=   2
     0.0000000    -0.0000102     0.0000000    -0.0000027     0.0000233
    -0.0000102     0.0000000     0.0000057    -0.0000022     0.0000141
     0.0000000     0.0000057     0.0000000    -0.0000031     0.0000000
    -0.0000027    -0.0000022    -0.0000031     0.0000000    -0.0000009
     0.0000233     0.0000141     0.0000000    -0.0000009     0.0000000
 l=   3
     0.0000000     0.0000000     0.0000000     0.0000000     0.0000000     0.0000000     0.0000000
     0.0000000     0.0000000     0.0000000     0.0000000     0.0000000     0.0000000     0.0000000
     0.0000000     0.0000000     0.0000000     0.0000000     0.0000000     0.0000000     0.0000000
     0.0000000     0.0000000     0.0000000     0.0000000     0.0000000     0.0000000     0.0000000
     0.0000000     0.0000000     0.0000000     0.0000000     0.0000000     0.0000000     0.0000000
     0.0000000     0.0000000     0.0000000     0.0000000     0.0000000     0.0000000     0.0000000
     0.0000000     0.0000000     0.0000000     0.0000000     0.0000000     0.0000000     0.0000000

 Ion:   87  E_soc:     -0.2810975
 l=   1
     0.0000000    -0.0487844    -0.0488772
    -0.0487844     0.0000000    -0.0429111
    -0.0488772    -0.0429111     0.0000000
 l=   2
     0.0000000    -0.0000102     0.0000000    -0.0000027     0.0000233
    -0.0000102     0.0000000     0.0000057    -0.0000022     0.0000141
     0.0000000     0.0000057     0.0000000    -0.0000031     0.0000000
    -0.0000027    -0.0000022    -0.0000031     0.0000000    -0.0000009
     0.0000233     0.0000141     0.0000000    -0.0000009     0.0000000
 l=   3
     0.0000000     0.0000000     0.0000000     0.0000000     0.0000000     0.0000000     0.0000000
     0.0000000     0.0000000     0.0000000     0.0000000     0.0000000     0.0000000     0.0000000
     0.0000000     0.0000000     0.0000000     0.0000000     0.0000000     0.0000000     0.0000000
     0.0000000     0.0000000     0.0000000     0.0000000     0.0000000     0.0000000     0.0000000
     0.0000000     0.0000000     0.0000000     0.0000000     0.0000000     0.0000000     0.0000000
     0.0000000     0.0000000     0.0000000     0.0000000     0.0000000     0.0000000     0.0000000
     0.0000000     0.0000000     0.0000000     0.0000000     0.0000000     0.0000000     0.0000000

 Ion:   88  E_soc:     -0.2789809
 l=   1
     0.0000000    -0.0478726    -0.0484719
    -0.0478726     0.0000000    -0.0431636
    -0.0484719    -0.0431636     0.0000000
 l=   2
     0.0000000    -0.0000086     0.0000000    -0.0000027     0.0000213
    -0.0000086     0.0000000     0.0000047    -0.0000024     0.0000107
     0.0000000     0.0000047     0.0000000    -0.0000034     0.0000000
    -0.0000027    -0.0000024    -0.0000034     0.0000000    -0.0000018
     0.0000213     0.0000107     0.0000000    -0.0000018     0.0000000
 l=   3
     0.0000000     0.0000000     0.0000000     0.0000000     0.0000000     0.0000000     0.0000000
     0.0000000     0.0000000     0.0000000     0.0000000     0.0000000     0.0000000     0.0000000
     0.0000000     0.0000000     0.0000000     0.0000000     0.0000000     0.0000000     0.0000000
     0.0000000     0.0000000     0.0000000     0.0000000     0.0000000     0.0000000     0.0000000
     0.0000000     0.0000000     0.0000000     0.0000000     0.0000000     0.0000000     0.0000000
     0.0000000     0.0000000     0.0000000     0.0000000     0.0000000     0.0000000     0.0000000
     0.0000000     0.0000000     0.0000000     0.0000000     0.0000000     0.0000000     0.0000000

 Ion:   89  E_soc:     -0.2853182
 l=   1
     0.0000000    -0.0430428    -0.0493862
    -0.0430428     0.0000000    -0.0502496
    -0.0493862    -0.0502496     0.0000000
 l=   2
     0.0000000    -0.0000021     0.0000000    -0.0000076     0.0000185
    -0.0000021     0.0000000    -0.0000023    -0.0000024    -0.0000015
     0.0000000    -0.0000023     0.0000000     0.0000047     0.0000000
    -0.0000076    -0.0000024     0.0000047     0.0000000     0.0000120
     0.0000185    -0.0000015     0.0000000     0.0000120     0.0000000
 l=   3
     0.0000000     0.0000000     0.0000000     0.0000000     0.0000000     0.0000000     0.0000000
     0.0000000     0.0000000     0.0000000     0.0000000     0.0000000     0.0000000     0.0000000
     0.0000000     0.0000000     0.0000000     0.0000000     0.0000000     0.0000000     0.0000000
     0.0000000     0.0000000     0.0000000     0.0000000     0.0000000     0.0000000     0.0000000
     0.0000000     0.0000000     0.0000000     0.0000000     0.0000000     0.0000000     0.0000000
     0.0000000     0.0000000     0.0000000     0.0000000     0.0000000     0.0000000     0.0000000
     0.0000000     0.0000000     0.0000000     0.0000000     0.0000000     0.0000000     0.0000000

 Ion:   90  E_soc:     -0.2853012
 l=   1
     0.0000000    -0.0430426    -0.0493810
    -0.0430426     0.0000000    -0.0502464
    -0.0493810    -0.0502464     0.0000000
 l=   2
     0.0000000    -0.0000021     0.0000000    -0.0000076     0.0000185
    -0.0000021     0.0000000    -0.0000023    -0.0000024    -0.0000015
     0.0000000    -0.0000023     0.0000000     0.0000047     0.0000000
    -0.0000076    -0.0000024     0.0000047     0.0000000     0.0000120
     0.0000185    -0.0000015     0.0000000     0.0000120     0.0000000
 l=   3
     0.0000000     0.0000000     0.0000000     0.0000000     0.0000000     0.0000000     0.0000000
     0.0000000     0.0000000     0.0000000     0.0000000     0.0000000     0.0000000     0.0000000
     0.0000000     0.0000000     0.0000000     0.0000000     0.0000000     0.0000000     0.0000000
     0.0000000     0.0000000     0.0000000     0.0000000     0.0000000     0.0000000     0.0000000
     0.0000000     0.0000000     0.0000000     0.0000000     0.0000000     0.0000000     0.0000000
     0.0000000     0.0000000     0.0000000     0.0000000     0.0000000     0.0000000     0.0000000
     0.0000000     0.0000000     0.0000000     0.0000000     0.0000000     0.0000000     0.0000000

 Ion:   91  E_soc:     -0.2853012
 l=   1
     0.0000000    -0.0430426    -0.0493810
    -0.0430426     0.0000000    -0.0502464
    -0.0493810    -0.0502464     0.0000000
 l=   2
     0.0000000    -0.0000021     0.0000000    -0.0000076     0.0000185
    -0.0000021     0.0000000    -0.0000023    -0.0000024    -0.0000015
     0.0000000    -0.0000023     0.0000000     0.0000047     0.0000000
    -0.0000076    -0.0000024     0.0000047     0.0000000     0.0000120
     0.0000185    -0.0000015     0.0000000     0.0000120     0.0000000
 l=   3
     0.0000000     0.0000000     0.0000000     0.0000000     0.0000000     0.0000000     0.0000000
     0.0000000     0.0000000     0.0000000     0.0000000     0.0000000     0.0000000     0.0000000
     0.0000000     0.0000000     0.0000000     0.0000000     0.0000000     0.0000000     0.0000000
     0.0000000     0.0000000     0.0000000     0.0000000     0.0000000     0.0000000     0.0000000
     0.0000000     0.0000000     0.0000000     0.0000000     0.0000000     0.0000000     0.0000000
     0.0000000     0.0000000     0.0000000     0.0000000     0.0000000     0.0000000     0.0000000
     0.0000000     0.0000000     0.0000000     0.0000000     0.0000000     0.0000000     0.0000000

 Ion:   92  E_soc:     -0.2853182
 l=   1
     0.0000000    -0.0430428    -0.0493862
    -0.0430428     0.0000000    -0.0502496
    -0.0493862    -0.0502496     0.0000000
 l=   2
     0.0000000    -0.0000021     0.0000000    -0.0000076     0.0000185
    -0.0000021     0.0000000    -0.0000023    -0.0000024    -0.0000015
     0.0000000    -0.0000023     0.0000000     0.0000047     0.0000000
    -0.0000076    -0.0000024     0.0000047     0.0000000     0.0000120
     0.0000185    -0.0000015     0.0000000     0.0000120     0.0000000
 l=   3
     0.0000000     0.0000000     0.0000000     0.0000000     0.0000000     0.0000000     0.0000000
     0.0000000     0.0000000     0.0000000     0.0000000     0.0000000     0.0000000     0.0000000
     0.0000000     0.0000000     0.0000000     0.0000000     0.0000000     0.0000000     0.0000000
     0.0000000     0.0000000     0.0000000     0.0000000     0.0000000     0.0000000     0.0000000
     0.0000000     0.0000000     0.0000000     0.0000000     0.0000000     0.0000000     0.0000000
     0.0000000     0.0000000     0.0000000     0.0000000     0.0000000     0.0000000     0.0000000
     0.0000000     0.0000000     0.0000000     0.0000000     0.0000000     0.0000000     0.0000000

 Ion:   93  E_soc:     -0.2853012
 l=   1
     0.0000000    -0.0430426    -0.0493810
    -0.0430426     0.0000000    -0.0502464
    -0.0493810    -0.0502464     0.0000000
 l=   2
     0.0000000    -0.0000021     0.0000000    -0.0000076     0.0000185
    -0.0000021     0.0000000    -0.0000023    -0.0000024    -0.0000015
     0.0000000    -0.0000023     0.0000000     0.0000047     0.0000000
    -0.0000076    -0.0000024     0.0000047     0.0000000     0.0000120
     0.0000185    -0.0000015     0.0000000     0.0000120     0.0000000
 l=   3
     0.0000000     0.0000000     0.0000000     0.0000000     0.0000000     0.0000000     0.0000000
     0.0000000     0.0000000     0.0000000     0.0000000     0.0000000     0.0000000     0.0000000
     0.0000000     0.0000000     0.0000000     0.0000000     0.0000000     0.0000000     0.0000000
     0.0000000     0.0000000     0.0000000     0.0000000     0.0000000     0.0000000     0.0000000
     0.0000000     0.0000000     0.0000000     0.0000000     0.0000000     0.0000000     0.0000000
     0.0000000     0.0000000     0.0000000     0.0000000     0.0000000     0.0000000     0.0000000
     0.0000000     0.0000000     0.0000000     0.0000000     0.0000000     0.0000000     0.0000000

 Ion:   94  E_soc:     -0.2853182
 l=   1
     0.0000000    -0.0430428    -0.0493862
    -0.0430428     0.0000000    -0.0502496
    -0.0493862    -0.0502496     0.0000000
 l=   2
     0.0000000    -0.0000021     0.0000000    -0.0000076     0.0000185
    -0.0000021     0.0000000    -0.0000023    -0.0000024    -0.0000015
     0.0000000    -0.0000023     0.0000000     0.0000047     0.0000000
    -0.0000076    -0.0000024     0.0000047     0.0000000     0.0000120
     0.0000185    -0.0000015     0.0000000     0.0000120     0.0000000
 l=   3
     0.0000000     0.0000000     0.0000000     0.0000000     0.0000000     0.0000000     0.0000000
     0.0000000     0.0000000     0.0000000     0.0000000     0.0000000     0.0000000     0.0000000
     0.0000000     0.0000000     0.0000000     0.0000000     0.0000000     0.0000000     0.0000000
     0.0000000     0.0000000     0.0000000     0.0000000     0.0000000     0.0000000     0.0000000
     0.0000000     0.0000000     0.0000000     0.0000000     0.0000000     0.0000000     0.0000000
     0.0000000     0.0000000     0.0000000     0.0000000     0.0000000     0.0000000     0.0000000
     0.0000000     0.0000000     0.0000000     0.0000000     0.0000000     0.0000000     0.0000000

 Ion:   95  E_soc:     -0.2853182
 l=   1
     0.0000000    -0.0430428    -0.0493862
    -0.0430428     0.0000000    -0.0502496
    -0.0493862    -0.0502496     0.0000000
 l=   2
     0.0000000    -0.0000021     0.0000000    -0.0000076     0.0000185
    -0.0000021     0.0000000    -0.0000023    -0.0000024    -0.0000015
     0.0000000    -0.0000023     0.0000000     0.0000047     0.0000000
    -0.0000076    -0.0000024     0.0000047     0.0000000     0.0000120
     0.0000185    -0.0000015     0.0000000     0.0000120     0.0000000
 l=   3
     0.0000000     0.0000000     0.0000000     0.0000000     0.0000000     0.0000000     0.0000000
     0.0000000     0.0000000     0.0000000     0.0000000     0.0000000     0.0000000     0.0000000
     0.0000000     0.0000000     0.0000000     0.0000000     0.0000000     0.0000000     0.0000000
     0.0000000     0.0000000     0.0000000     0.0000000     0.0000000     0.0000000     0.0000000
     0.0000000     0.0000000     0.0000000     0.0000000     0.0000000     0.0000000     0.0000000
     0.0000000     0.0000000     0.0000000     0.0000000     0.0000000     0.0000000     0.0000000
     0.0000000     0.0000000     0.0000000     0.0000000     0.0000000     0.0000000     0.0000000

 Ion:   96  E_soc:     -0.2853012
 l=   1
     0.0000000    -0.0430426    -0.0493810
    -0.0430426     0.0000000    -0.0502464
    -0.0493810    -0.0502464     0.0000000
 l=   2
     0.0000000    -0.0000021     0.0000000    -0.0000076     0.0000185
    -0.0000021     0.0000000    -0.0000023    -0.0000024    -0.0000015
     0.0000000    -0.0000023     0.0000000     0.0000047     0.0000000
    -0.0000076    -0.0000024     0.0000047     0.0000000     0.0000120
     0.0000185    -0.0000015     0.0000000     0.0000120     0.0000000
 l=   3
     0.0000000     0.0000000     0.0000000     0.0000000     0.0000000     0.0000000     0.0000000
     0.0000000     0.0000000     0.0000000     0.0000000     0.0000000     0.0000000     0.0000000
     0.0000000     0.0000000     0.0000000     0.0000000     0.0000000     0.0000000     0.0000000
     0.0000000     0.0000000     0.0000000     0.0000000     0.0000000     0.0000000     0.0000000
     0.0000000     0.0000000     0.0000000     0.0000000     0.0000000     0.0000000     0.0000000
     0.0000000     0.0000000     0.0000000     0.0000000     0.0000000     0.0000000     0.0000000
     0.0000000     0.0000000     0.0000000     0.0000000     0.0000000     0.0000000     0.0000000

 total amount of memory used by VASP on root node   392927. kBytes
========================================================================

   base      :      30000. kBytes
   nonl-proj :      73667. kBytes
   fftplans  :      22714. kBytes
   grid      :      35610. kBytes
   one-center:        248. kBytes
   wavefun   :     230688. kBytes
 
  
  
 General timing and accounting informations for this job:
 ========================================================
  
                  Total CPU time used (sec):     9028.632
                            User time (sec):     9013.871
                          System time (sec):       14.761
                         Elapsed time (sec):     9041.628
  
                   Maximum memory used (kb):      412440.
                   Average memory used (kb):           0.
  
                          Minor page faults:       594605
                          Major page faults:            0
                 Voluntary context switches:        14585
