 running on  192 total cores
 distrk:  each k-point on  192 cores,    1 groups
 distr:  one band on   24 cores,    8 groups
 using from now: INCAR     
 vasp.5.4.1 24Jun15 (build Nov 25 2015 16:39:35) complex                        
  
 POSCAR found type information on POSCAR  C  N  H  Pb I 
 POSCAR found :  5 types and      96 ions
 scaLAPACK will be used

 ----------------------------------------------------------------------------- 
|                                                                             |
|  ADVICE TO THIS USER RUNNING 'VASP/VAMP'   (HEAR YOUR MASTER'S VOICE ...):  |
|                                                                             |
|      You have a (more or less) 'large supercell' and for larger cells       |
|      it might be more efficient to use real space projection opertators     |
|      So try LREAL= Auto  in the INCAR   file.                               |
|      Mind: At the moment your POTCAR file does not contain real space       |
|       projectors, and has to be modified,  BUT if you                       |
|      want to do an extremely  accurate calculation you might also keep the  |
|      reciprocal projection scheme          (i.e. LREAL=.FALSE.)             |
|                                                                             |
 ----------------------------------------------------------------------------- 


 ----------------------------------------------------------------------------- 
|                                                                             |
|  ADVICE TO THIS USER RUNNING 'VASP/VAMP'   (HEAR YOUR MASTER'S VOICE ...):  |
|                                                                             |
|      You enforced a specific xc-type in the INCAR file,                     |
|      a different type was found on the POTCAR file                          |
|          I HOPE YOU KNOW, WHAT YOU ARE  DOING                               |
|                                                                             |
 ----------------------------------------------------------------------------- 

 LDA part: xc-table for Pade appr. of Perdew
 POSCAR, INCAR and KPOINTS ok, starting setup
 WARNING: small aliasing (wrap around) errors must be expected
 FFT: planning ...
 WAVECAR not read
 entering main loop
       N       E                     dE             d eps       ncg     rms          rms(c)
DAV:   1     0.422378341658E+04    0.42238E+04   -0.19291E+05 32544   0.146E+03
DAV:   2     0.843019592954E+03   -0.33808E+04   -0.31312E+04 35592   0.322E+02
DAV:   3     0.233526982640E+03   -0.60949E+03   -0.58930E+03 43984   0.157E+02
DAV:   4     0.187756996950E+03   -0.45770E+02   -0.44683E+02 44056   0.438E+01
DAV:   5     0.185548412677E+03   -0.22086E+01   -0.21999E+01 50528   0.994E+00    0.977E+01
DAV:   6     0.551999624643E+02   -0.13035E+03   -0.15135E+03 37232   0.506E+01    0.489E+01
DAV:   7    -0.935540649068E+02   -0.14875E+03   -0.15931E+02 38968   0.219E+01    0.284E+01
DAV:   8    -0.201645506809E+03   -0.10809E+03   -0.65158E+01 37608   0.130E+01    0.184E+01
DAV:   9    -0.333311514698E+03   -0.13167E+03   -0.12299E+02 36632   0.162E+01    0.923E+00
DAV:  10    -0.381033444126E+03   -0.47722E+02   -0.47119E+01 37472   0.103E+01    0.663E+00
DAV:  11    -0.410478082803E+03   -0.29445E+02   -0.40646E+01 37704   0.834E+00    0.380E+00
DAV:  12    -0.421163040566E+03   -0.10685E+02   -0.16635E+01 41224   0.542E+00    0.254E+00
DAV:  13    -0.422856689547E+03   -0.16936E+01   -0.25284E+00 39896   0.257E+00    0.208E+00
DAV:  14    -0.423473933360E+03   -0.61724E+00   -0.92164E-01 38864   0.136E+00    0.112E+00
DAV:  15    -0.423532297333E+03   -0.58364E-01   -0.17636E-01 42576   0.711E-01    0.643E-01
DAV:  16    -0.423539372200E+03   -0.70749E-02   -0.26660E-02 41696   0.307E-01    0.411E-01
DAV:  17    -0.423542764183E+03   -0.33920E-02   -0.96006E-03 38936   0.168E-01    0.224E-01
DAV:  18    -0.423544374145E+03   -0.16100E-02   -0.30015E-03 40296   0.948E-02    0.833E-02
DAV:  19    -0.423544796349E+03   -0.42220E-03   -0.72651E-04 39792   0.518E-02    0.451E-02
DAV:  20    -0.423545073280E+03   -0.27693E-03   -0.21462E-04 37584   0.290E-02    0.237E-02
DAV:  21    -0.423545200267E+03   -0.12699E-03   -0.12633E-04 38888   0.190E-02    0.146E-02
DAV:  22    -0.423545209117E+03   -0.88498E-05   -0.19374E-05 44184   0.869E-03    0.103E-02
DAV:  23    -0.423545211220E+03   -0.21029E-05   -0.65380E-06 40872   0.413E-03    0.413E-03
DAV:  24    -0.423545213500E+03   -0.22804E-05   -0.26050E-06 35088   0.300E-03    0.168E-03
DAV:  25    -0.423545213597E+03   -0.96519E-07   -0.66944E-07 41736   0.144E-03    0.142E-03
DAV:  26    -0.423545213599E+03   -0.22519E-08   -0.12347E-07 43416   0.770E-04    0.102E-03
DAV:  27    -0.423545213540E+03    0.58699E-07   -0.37384E-08 34712   0.439E-04    0.367E-04
DAV:  28    -0.423545213442E+03    0.98462E-07   -0.25572E-08 31536   0.317E-04    0.279E-04
DAV:  29    -0.423545213439E+03    0.32342E-08   -0.39049E-09 30216   0.162E-04
   1 F= -.42354521E+03 E0= -.42354521E+03  d E =0.000000E+00  mag=     0.0000     0.0000     0.0000
Application 22254263 resources: utime ~1731183s, stime ~2800s, Rss ~415840, inblocks ~2672637, outblocks ~3877391
