  12  12   1   0
  0.2070820E+02  0.6290120E-09  0.6273890E-09  0.6297040E-09  0.5000000E-15
  1.000000000000000E-004
  CAR 
 Name                                    
      9.02764589    -19.44822806  301      1.44001198      1.00000000
    -19.448  0.0000E+00  0.0000E+00
    -19.353  0.0000E+00  0.0000E+00
    -19.258  0.0000E+00  0.0000E+00
    -19.163  0.0000E+00  0.0000E+00
    -19.069  0.0000E+00  0.0000E+00
    -18.974  0.0000E+00  0.0000E+00
    -18.879  0.0000E+00  0.0000E+00
    -18.784  0.0000E+00  0.0000E+00
    -18.689  0.0000E+00  0.0000E+00
    -18.594  0.0000E+00  0.0000E+00
    -18.499  0.0000E+00  0.0000E+00
    -18.404  0.0000E+00  0.0000E+00
    -18.309  0.0000E+00  0.0000E+00
    -18.214  0.0000E+00  0.0000E+00
    -18.119  0.2107E+02  0.2000E+01
    -18.024  0.0000E+00  0.2000E+01
    -17.930  0.0000E+00  0.2000E+01
    -17.835  0.0000E+00  0.2000E+01
    -17.740  0.0000E+00  0.2000E+01
    -17.645  0.0000E+00  0.2000E+01
    -17.550  0.0000E+00  0.2000E+01
    -17.455  0.0000E+00  0.2000E+01
    -17.360  0.0000E+00  0.2000E+01
    -17.265  0.0000E+00  0.2000E+01
    -17.170  0.0000E+00  0.2000E+01
    -17.075  0.0000E+00  0.2000E+01
    -16.980  0.0000E+00  0.2000E+01
    -16.885  0.0000E+00  0.2000E+01
    -16.790  0.0000E+00  0.2000E+01
    -16.696  0.0000E+00  0.2000E+01
    -16.601  0.0000E+00  0.2000E+01
    -16.506  0.0000E+00  0.2000E+01
    -16.411  0.0000E+00  0.2000E+01
    -16.316  0.0000E+00  0.2000E+01
    -16.221  0.0000E+00  0.2000E+01
    -16.126  0.0000E+00  0.2000E+01
    -16.031  0.0000E+00  0.2000E+01
    -15.936  0.0000E+00  0.2000E+01
    -15.841  0.0000E+00  0.2000E+01
    -15.746  0.0000E+00  0.2000E+01
    -15.651  0.0000E+00  0.2000E+01
    -15.557  0.0000E+00  0.2000E+01
    -15.462  0.0000E+00  0.2000E+01
    -15.367  0.0000E+00  0.2000E+01
    -15.272  0.0000E+00  0.2000E+01
    -15.177  0.2073E+02  0.3968E+01
    -15.082  0.7066E+02  0.1200E+02
    -14.987  0.0000E+00  0.1200E+02
    -14.892  0.0000E+00  0.1200E+02
    -14.797  0.0000E+00  0.1200E+02
    -14.702  0.0000E+00  0.1200E+02
    -14.607  0.0000E+00  0.1200E+02
    -14.512  0.0000E+00  0.1200E+02
    -14.417  0.0000E+00  0.1200E+02
    -14.323  0.0000E+00  0.1200E+02
    -14.228  0.0000E+00  0.1200E+02
    -14.133  0.0000E+00  0.1200E+02
    -14.038  0.0000E+00  0.1200E+02
    -13.943  0.0000E+00  0.1200E+02
    -13.848  0.0000E+00  0.1200E+02
    -13.753  0.0000E+00  0.1200E+02
    -13.658  0.0000E+00  0.1200E+02
    -13.563  0.0000E+00  0.1200E+02
    -13.468  0.0000E+00  0.1200E+02
    -13.373  0.0000E+00  0.1200E+02
    -13.278  0.0000E+00  0.1200E+02
    -13.184  0.0000E+00  0.1200E+02
    -13.089  0.0000E+00  0.1200E+02
    -12.994  0.0000E+00  0.1200E+02
    -12.899  0.0000E+00  0.1200E+02
    -12.804  0.0000E+00  0.1200E+02
    -12.709  0.0000E+00  0.1200E+02
    -12.614  0.0000E+00  0.1200E+02
    -12.519  0.0000E+00  0.1200E+02
    -12.424  0.0000E+00  0.1200E+02
    -12.329  0.0000E+00  0.1200E+02
    -12.234  0.0000E+00  0.1200E+02
    -12.139  0.0000E+00  0.1200E+02
    -12.045  0.0000E+00  0.1200E+02
    -11.950  0.0000E+00  0.1200E+02
    -11.855  0.0000E+00  0.1200E+02
    -11.760  0.0000E+00  0.1200E+02
    -11.665  0.0000E+00  0.1200E+02
    -11.570  0.0000E+00  0.1200E+02
    -11.475  0.0000E+00  0.1200E+02
    -11.380  0.1025E-04  0.1200E+02
    -11.285  0.6401E+01  0.1261E+02
    -11.190  0.1063E+02  0.1400E+02
    -11.095  0.0000E+00  0.1400E+02
    -11.000  0.2045E-10  0.1400E+02
    -10.905  0.5054E+00  0.1405E+02
    -10.811  0.2366E+01  0.1429E+02
    -10.716  0.4882E+01  0.1482E+02
    -10.621  0.7569E+01  0.1564E+02
    -10.526  0.3988E+01  0.1609E+02
    -10.431  0.7826E+01  0.1688E+02
    -10.336  0.5824E+01  0.1752E+02
    -10.241  0.3311E+01  0.1800E+02
    -10.146  0.5609E+01  0.1854E+02
    -10.051  0.9422E+01  0.1955E+02
     -9.956  0.3113E+01  0.2000E+02
     -9.861  0.0000E+00  0.2000E+02
     -9.766  0.0000E+00  0.2000E+02
     -9.672  0.0000E+00  0.2000E+02
     -9.577  0.0000E+00  0.2000E+02
     -9.482  0.0000E+00  0.2000E+02
     -9.387  0.0000E+00  0.2000E+02
     -9.292  0.0000E+00  0.2000E+02
     -9.197  0.0000E+00  0.2000E+02
     -9.102  0.0000E+00  0.2000E+02
     -9.007  0.0000E+00  0.2000E+02
     -8.912  0.0000E+00  0.2000E+02
     -8.817  0.0000E+00  0.2000E+02
     -8.722  0.0000E+00  0.2000E+02
     -8.627  0.0000E+00  0.2000E+02
     -8.532  0.0000E+00  0.2000E+02
     -8.438  0.0000E+00  0.2000E+02
     -8.343  0.0000E+00  0.2000E+02
     -8.248  0.0000E+00  0.2000E+02
     -8.153  0.0000E+00  0.2000E+02
     -8.058  0.0000E+00  0.2000E+02
     -7.963  0.0000E+00  0.2000E+02
     -7.868  0.6286E-08  0.2000E+02
     -7.773  0.1127E+02  0.2107E+02
     -7.678  0.4372E+01  0.2203E+02
     -7.583  0.1842E+02  0.2400E+02
     -7.488  0.0000E+00  0.2400E+02
     -7.393  0.0000E+00  0.2400E+02
     -7.299  0.0000E+00  0.2400E+02
     -7.204  0.2816E-01  0.2400E+02
     -7.109  0.5060E-08  0.2401E+02
     -7.014  0.5853E+00  0.2406E+02
     -6.919  0.1163E+01  0.2418E+02
     -6.824  0.7984E-01  0.2418E+02
     -6.729  0.5853E+00  0.2431E+02
     -6.634  0.2249E+01  0.2452E+02
     -6.539  0.1211E+01  0.2465E+02
     -6.444  0.1171E+01  0.2489E+02
     -6.349  0.2332E+01  0.2511E+02
     -6.254  0.2248E+01  0.2532E+02
     -6.159  0.9745E+00  0.2544E+02
     -6.065  0.2473E+01  0.2568E+02
     -5.970  0.1280E+01  0.2581E+02
     -5.875  0.5341E+01  0.2633E+02
     -5.780  0.1326E+02  0.2782E+02
     -5.685  0.7792E+00  0.2794E+02
     -5.590  0.5853E+00  0.2799E+02
     -5.495  0.1527E-02  0.2799E+02
     -5.400  0.9602E-01  0.2800E+02
     -5.305  0.0000E+00  0.2800E+02
     -5.210  0.0000E+00  0.2800E+02
     -5.115  0.0000E+00  0.2800E+02
     -5.020  0.0000E+00  0.2800E+02
     -4.926  0.0000E+00  0.2800E+02
     -4.831  0.0000E+00  0.2800E+02
     -4.736  0.0000E+00  0.2800E+02
     -4.641  0.0000E+00  0.2800E+02
     -4.546  0.0000E+00  0.2800E+02
     -4.451  0.0000E+00  0.2800E+02
     -4.356  0.0000E+00  0.2800E+02
     -4.261  0.0000E+00  0.2800E+02
     -4.166  0.0000E+00  0.2800E+02
     -4.071  0.0000E+00  0.2800E+02
     -3.976  0.0000E+00  0.2800E+02
     -3.881  0.0000E+00  0.2800E+02
     -3.786  0.0000E+00  0.2800E+02
     -3.692  0.5415E-17  0.2800E+02
     -3.597  0.3148E+01  0.2830E+02
     -3.502  0.3479E+02  0.3200E+02
     -3.407  0.0000E+00  0.3200E+02
     -3.312  0.0000E+00  0.3200E+02
     -3.217  0.0000E+00  0.3200E+02
     -3.122  0.0000E+00  0.3200E+02
     -3.027  0.0000E+00  0.3200E+02
     -2.932  0.0000E+00  0.3200E+02
     -2.837  0.0000E+00  0.3200E+02
     -2.742  0.0000E+00  0.3200E+02
     -2.647  0.0000E+00  0.3200E+02
     -2.553  0.0000E+00  0.3200E+02
     -2.458  0.0000E+00  0.3200E+02
     -2.363  0.0000E+00  0.3200E+02
     -2.268  0.6972E-06  0.3200E+02
     -2.173  0.1524E+01  0.3214E+02
     -2.078  0.4335E+01  0.3258E+02
     -1.983  0.2689E+01  0.3286E+02
     -1.888  0.2218E+01  0.3307E+02
     -1.793  0.2115E+01  0.3332E+02
     -1.698  0.4466E+01  0.3383E+02
     -1.603  0.5064E+01  0.3435E+02
     -1.508  0.3826E+01  0.3473E+02
     -1.414  0.1788E+01  0.3495E+02
     -1.319  0.1951E+00  0.3500E+02
     -1.224  0.0000E+00  0.3500E+02
     -1.129  0.1230E+00  0.3501E+02
     -1.034  0.1869E+01  0.3521E+02
     -0.939  0.6616E+01  0.3589E+02
     -0.844  0.5714E+01  0.3662E+02
     -0.749  0.7676E+01  0.3750E+02
     -0.654  0.4621E+01  0.3798E+02
     -0.559  0.3038E+01  0.3831E+02
     -0.464  0.6322E+01  0.3896E+02
     -0.369  0.3488E+01  0.3941E+02
     -0.274  0.8033E+01  0.4029E+02
     -0.180  0.7919E+01  0.4116E+02
     -0.085  0.5201E+01  0.4176E+02
      0.010  0.1018E+02  0.4286E+02
      0.105  0.6307E+01  0.4371E+02
      0.200  0.8608E+01  0.4476E+02
      0.295  0.6279E+01  0.4548E+02
      0.390  0.9418E+01  0.4646E+02
      0.485  0.1180E+02  0.4784E+02
      0.580  0.4463E+01  0.4836E+02
      0.675  0.6815E+01  0.4914E+02
      0.770  0.3379E+01  0.4953E+02
      0.865  0.8095E+00  0.4969E+02
      0.959  0.1462E+01  0.4984E+02
      1.054  0.5004E+00  0.4989E+02
      1.149  0.4916E+00  0.4995E+02
      1.244  0.1951E+00  0.4999E+02
      1.339  0.5156E-03  0.4999E+02
      1.434  0.9703E-01  0.5000E+02
      1.529  0.0000E+00  0.5000E+02
      1.624  0.0000E+00  0.5000E+02
      1.719  0.0000E+00  0.5000E+02
      1.814  0.0000E+00  0.5000E+02
      1.909  0.0000E+00  0.5000E+02
      2.004  0.0000E+00  0.5000E+02
      2.099  0.0000E+00  0.5000E+02
      2.193  0.0000E+00  0.5000E+02
      2.288  0.0000E+00  0.5000E+02
      2.383  0.0000E+00  0.5000E+02
      2.478  0.0000E+00  0.5000E+02
      2.573  0.0000E+00  0.5000E+02
      2.668  0.0000E+00  0.5000E+02
      2.763  0.2359E-07  0.5000E+02
      2.858  0.1951E+00  0.5002E+02
      2.953  0.7876E+00  0.5009E+02
      3.048  0.1407E+01  0.5024E+02
      3.143  0.3794E+00  0.5029E+02
      3.238  0.1840E+01  0.5046E+02
      3.332  0.1077E+01  0.5067E+02
      3.427  0.7805E+00  0.5079E+02
      3.522  0.1204E+01  0.5090E+02
      3.617  0.7166E+00  0.5102E+02
      3.712  0.0000E+00  0.5106E+02
      3.807  0.1126E+01  0.5116E+02
      3.902  0.3520E+00  0.5124E+02
      3.997  0.2241E+01  0.5149E+02
      4.092  0.2670E+01  0.5177E+02
      4.187  0.1654E+01  0.5199E+02
      4.282  0.3610E+01  0.5234E+02
      4.377  0.3225E+01  0.5277E+02
      4.472  0.1637E+01  0.5293E+02
      4.566  0.3902E+00  0.5298E+02
      4.661  0.1951E+00  0.5300E+02
      4.756  0.9664E-01  0.5301E+02
      4.851  0.1308E-02  0.5301E+02
      4.946  0.3646E+00  0.5304E+02
      5.041  0.4304E+00  0.5311E+02
      5.136  0.1520E+01  0.5327E+02
      5.231  0.2243E+01  0.5349E+02
      5.326  0.1139E+01  0.5365E+02
      5.421  0.3944E+01  0.5410E+02
      5.516  0.3512E+01  0.5453E+02
      5.611  0.3868E+01  0.5493E+02
      5.705  0.3775E+01  0.5535E+02
      5.800  0.2798E+01  0.5568E+02
      5.895  0.5008E+01  0.5620E+02
      5.990  0.3807E+01  0.5660E+02
      6.085  0.5660E+01  0.5725E+02
      6.180  0.4577E+01  0.5774E+02
      6.275  0.5252E+01  0.5829E+02
      6.370  0.5138E+01  0.5880E+02
      6.465  0.6696E+01  0.5955E+02
      6.560  0.4458E+01  0.6003E+02
      6.655  0.2723E+01  0.6030E+02
      6.750  0.3679E+01  0.6074E+02
      6.844  0.4617E+01  0.6129E+02
      6.939  0.5696E+01  0.6190E+02
      7.034  0.5201E+01  0.6250E+02
      7.129  0.3682E+01  0.6292E+02
      7.224  0.2984E+01  0.6330E+02
      7.319  0.1172E+01  0.6344E+02
      7.414  0.2363E+01  0.6369E+02
      7.509  0.1203E+01  0.6383E+02
      7.604  0.3901E+00  0.6392E+02
      7.699  0.6828E+00  0.6398E+02
      7.794  0.1951E+00  0.6400E+02
      7.889  0.0000E+00  0.6400E+02
      7.984  0.0000E+00  0.6400E+02
      8.078  0.0000E+00  0.6400E+02
      8.173  0.0000E+00  0.6400E+02
      8.268  0.0000E+00  0.6400E+02
      8.363  0.0000E+00  0.6400E+02
      8.458  0.0000E+00  0.6400E+02
      8.553  0.0000E+00  0.6400E+02
      8.648  0.0000E+00  0.6400E+02
      8.743  0.0000E+00  0.6400E+02
      8.838  0.0000E+00  0.6400E+02
      8.933  0.0000E+00  0.6400E+02
      9.028  0.0000E+00  0.6400E+02
      9.02764589    -19.44822806  301      1.44001198      1.00000000
    -19.448  0.0000E+00  0.0000E+00  0.0000E+00
    -19.353  0.0000E+00  0.0000E+00  0.0000E+00
    -19.258  0.0000E+00  0.0000E+00  0.0000E+00
    -19.163  0.0000E+00  0.0000E+00  0.0000E+00
    -19.069  0.0000E+00  0.0000E+00  0.0000E+00
    -18.974  0.0000E+00  0.0000E+00  0.0000E+00
    -18.879  0.0000E+00  0.0000E+00  0.0000E+00
    -18.784  0.0000E+00  0.0000E+00  0.0000E+00
    -18.689  0.0000E+00  0.0000E+00  0.0000E+00
    -18.594  0.0000E+00  0.0000E+00  0.0000E+00
    -18.499  0.0000E+00  0.0000E+00  0.0000E+00
    -18.404  0.0000E+00  0.0000E+00  0.0000E+00
    -18.309  0.0000E+00  0.0000E+00  0.0000E+00
    -18.214  0.0000E+00  0.0000E+00  0.0000E+00
    -18.119  0.1266E+01  0.4079E+00  0.0000E+00
    -18.024  0.0000E+00  0.0000E+00  0.0000E+00
    -17.930  0.0000E+00  0.0000E+00  0.0000E+00
    -17.835  0.0000E+00  0.0000E+00  0.0000E+00
    -17.740  0.0000E+00  0.0000E+00  0.0000E+00
    -17.645  0.0000E+00  0.0000E+00  0.0000E+00
    -17.550  0.0000E+00  0.0000E+00  0.0000E+00
    -17.455  0.0000E+00  0.0000E+00  0.0000E+00
    -17.360  0.0000E+00  0.0000E+00  0.0000E+00
    -17.265  0.0000E+00  0.0000E+00  0.0000E+00
    -17.170  0.0000E+00  0.0000E+00  0.0000E+00
    -17.075  0.0000E+00  0.0000E+00  0.0000E+00
    -16.980  0.0000E+00  0.0000E+00  0.0000E+00
    -16.885  0.0000E+00  0.0000E+00  0.0000E+00
    -16.790  0.0000E+00  0.0000E+00  0.0000E+00
    -16.696  0.0000E+00  0.0000E+00  0.0000E+00
    -16.601  0.0000E+00  0.0000E+00  0.0000E+00
    -16.506  0.0000E+00  0.0000E+00  0.0000E+00
    -16.411  0.0000E+00  0.0000E+00  0.0000E+00
    -16.316  0.0000E+00  0.0000E+00  0.0000E+00
    -16.221  0.0000E+00  0.0000E+00  0.0000E+00
    -16.126  0.0000E+00  0.0000E+00  0.0000E+00
    -16.031  0.0000E+00  0.0000E+00  0.0000E+00
    -15.936  0.0000E+00  0.0000E+00  0.0000E+00
    -15.841  0.0000E+00  0.0000E+00  0.0000E+00
    -15.746  0.0000E+00  0.0000E+00  0.0000E+00
    -15.651  0.0000E+00  0.0000E+00  0.0000E+00
    -15.557  0.0000E+00  0.0000E+00  0.0000E+00
    -15.462  0.0000E+00  0.0000E+00  0.0000E+00
    -15.367  0.0000E+00  0.0000E+00  0.0000E+00
    -15.272  0.0000E+00  0.0000E+00  0.0000E+00
    -15.177  0.4980E-05  0.1054E-05  0.0000E+00
    -15.082  0.3057E-04  0.6168E-05  0.0000E+00
    -14.987  0.0000E+00  0.0000E+00  0.0000E+00
    -14.892  0.0000E+00  0.0000E+00  0.0000E+00
    -14.797  0.0000E+00  0.0000E+00  0.0000E+00
    -14.702  0.0000E+00  0.0000E+00  0.0000E+00
    -14.607  0.0000E+00  0.0000E+00  0.0000E+00
    -14.512  0.0000E+00  0.0000E+00  0.0000E+00
    -14.417  0.0000E+00  0.0000E+00  0.0000E+00
    -14.323  0.0000E+00  0.0000E+00  0.0000E+00
    -14.228  0.0000E+00  0.0000E+00  0.0000E+00
    -14.133  0.0000E+00  0.0000E+00  0.0000E+00
    -14.038  0.0000E+00  0.0000E+00  0.0000E+00
    -13.943  0.0000E+00  0.0000E+00  0.0000E+00
    -13.848  0.0000E+00  0.0000E+00  0.0000E+00
    -13.753  0.0000E+00  0.0000E+00  0.0000E+00
    -13.658  0.0000E+00  0.0000E+00  0.0000E+00
    -13.563  0.0000E+00  0.0000E+00  0.0000E+00
    -13.468  0.0000E+00  0.0000E+00  0.0000E+00
    -13.373  0.0000E+00  0.0000E+00  0.0000E+00
    -13.278  0.0000E+00  0.0000E+00  0.0000E+00
    -13.184  0.0000E+00  0.0000E+00  0.0000E+00
    -13.089  0.0000E+00  0.0000E+00  0.0000E+00
    -12.994  0.0000E+00  0.0000E+00  0.0000E+00
    -12.899  0.0000E+00  0.0000E+00  0.0000E+00
    -12.804  0.0000E+00  0.0000E+00  0.0000E+00
    -12.709  0.0000E+00  0.0000E+00  0.0000E+00
    -12.614  0.0000E+00  0.0000E+00  0.0000E+00
    -12.519  0.0000E+00  0.0000E+00  0.0000E+00
    -12.424  0.0000E+00  0.0000E+00  0.0000E+00
    -12.329  0.0000E+00  0.0000E+00  0.0000E+00
    -12.234  0.0000E+00  0.0000E+00  0.0000E+00
    -12.139  0.0000E+00  0.0000E+00  0.0000E+00
    -12.045  0.0000E+00  0.0000E+00  0.0000E+00
    -11.950  0.0000E+00  0.0000E+00  0.0000E+00
    -11.855  0.0000E+00  0.0000E+00  0.0000E+00
    -11.760  0.0000E+00  0.0000E+00  0.0000E+00
    -11.665  0.0000E+00  0.0000E+00  0.0000E+00
    -11.570  0.0000E+00  0.0000E+00  0.0000E+00
    -11.475  0.0000E+00  0.0000E+00  0.0000E+00
    -11.380  0.2835E-05  0.2683E-10  0.0000E+00
    -11.285  0.1931E+01  0.6452E-04  0.0000E+00
    -11.190  0.3473E+01  0.9636E-04  0.0000E+00
    -11.095  0.0000E+00  0.0000E+00  0.0000E+00
    -11.000  0.3841E-12  0.1193E-13  0.0000E+00
    -10.905  0.8047E-02  0.2830E-03  0.0000E+00
    -10.811  0.4737E-01  0.1113E-02  0.0000E+00
    -10.716  0.9822E-01  0.1691E-02  0.0000E+00
    -10.621  0.1040E+00  0.1702E-02  0.0000E+00
    -10.526  0.9669E-02  0.9226E-03  0.0000E+00
    -10.431  0.4080E-01  0.1893E-02  0.0000E+00
    -10.336  0.1889E-01  0.1072E-02  0.0000E+00
    -10.241  0.1138E-02  0.2743E-03  0.0000E+00
    -10.146  0.2124E-02  0.4087E-03  0.0000E+00
    -10.051  0.1140E-01  0.4525E-03  0.0000E+00
     -9.956  0.7187E-02  0.2158E-03  0.0000E+00
     -9.861  0.0000E+00  0.0000E+00  0.0000E+00
     -9.766  0.0000E+00  0.0000E+00  0.0000E+00
     -9.672  0.0000E+00  0.0000E+00  0.0000E+00
     -9.577  0.0000E+00  0.0000E+00  0.0000E+00
     -9.482  0.0000E+00  0.0000E+00  0.0000E+00
     -9.387  0.0000E+00  0.0000E+00  0.0000E+00
     -9.292  0.0000E+00  0.0000E+00  0.0000E+00
     -9.197  0.0000E+00  0.0000E+00  0.0000E+00
     -9.102  0.0000E+00  0.0000E+00  0.0000E+00
     -9.007  0.0000E+00  0.0000E+00  0.0000E+00
     -8.912  0.0000E+00  0.0000E+00  0.0000E+00
     -8.817  0.0000E+00  0.0000E+00  0.0000E+00
     -8.722  0.0000E+00  0.0000E+00  0.0000E+00
     -8.627  0.0000E+00  0.0000E+00  0.0000E+00
     -8.532  0.0000E+00  0.0000E+00  0.0000E+00
     -8.438  0.0000E+00  0.0000E+00  0.0000E+00
     -8.343  0.0000E+00  0.0000E+00  0.0000E+00
     -8.248  0.0000E+00  0.0000E+00  0.0000E+00
     -8.153  0.0000E+00  0.0000E+00  0.0000E+00
     -8.058  0.0000E+00  0.0000E+00  0.0000E+00
     -7.963  0.0000E+00  0.0000E+00  0.0000E+00
     -7.868  0.1634E-17  0.2659E-09  0.0000E+00
     -7.773  0.7266E-04  0.4780E+00  0.0000E+00
     -7.678  0.5816E-05  0.1904E+00  0.0000E+00
     -7.583  0.2364E-03  0.8456E+00  0.0000E+00
     -7.488  0.0000E+00  0.0000E+00  0.0000E+00
     -7.393  0.0000E+00  0.0000E+00  0.0000E+00
     -7.299  0.0000E+00  0.0000E+00  0.0000E+00
     -7.204  0.1075E-10  0.2289E-05  0.0000E+00
     -7.109  0.2034E-16  0.1002E-11  0.0000E+00
     -7.014  0.1733E-07  0.9374E-04  0.0000E+00
     -6.919  0.1088E-04  0.2169E-03  0.0000E+00
     -6.824  0.2121E-05  0.2102E-04  0.0000E+00
     -6.729  0.2124E-08  0.1096E-03  0.0000E+00
     -6.634  0.6542E-04  0.5879E-03  0.0000E+00
     -6.539  0.9461E-04  0.8086E-03  0.0000E+00
     -6.444  0.4971E-04  0.4152E-03  0.0000E+00
     -6.349  0.2903E-03  0.2487E-02  0.0000E+00
     -6.254  0.7626E-03  0.8296E-02  0.0000E+00
     -6.159  0.1242E-03  0.1071E-02  0.0000E+00
     -6.065  0.2260E-02  0.2636E-01  0.0000E+00
     -5.970  0.3627E-02  0.4545E-01  0.0000E+00
     -5.875  0.7931E-01  0.1018E+01  0.0000E+00
     -5.780  0.2183E+00  0.2826E+01  0.0000E+00
     -5.685  0.6288E-02  0.8325E-01  0.0000E+00
     -5.590  0.1519E-02  0.2042E-01  0.0000E+00
     -5.495  0.1604E-05  0.2243E-04  0.0000E+00
     -5.400  0.1009E-03  0.1410E-02  0.0000E+00
     -5.305  0.0000E+00  0.0000E+00  0.0000E+00
     -5.210  0.0000E+00  0.0000E+00  0.0000E+00
     -5.115  0.0000E+00  0.0000E+00  0.0000E+00
     -5.020  0.0000E+00  0.0000E+00  0.0000E+00
     -4.926  0.0000E+00  0.0000E+00  0.0000E+00
     -4.831  0.0000E+00  0.0000E+00  0.0000E+00
     -4.736  0.0000E+00  0.0000E+00  0.0000E+00
     -4.641  0.0000E+00  0.0000E+00  0.0000E+00
     -4.546  0.0000E+00  0.0000E+00  0.0000E+00
     -4.451  0.0000E+00  0.0000E+00  0.0000E+00
     -4.356  0.0000E+00  0.0000E+00  0.0000E+00
     -4.261  0.0000E+00  0.0000E+00  0.0000E+00
     -4.166  0.0000E+00  0.0000E+00  0.0000E+00
     -4.071  0.0000E+00  0.0000E+00  0.0000E+00
     -3.976  0.0000E+00  0.0000E+00  0.0000E+00
     -3.881  0.0000E+00  0.0000E+00  0.0000E+00
     -3.786  0.0000E+00  0.0000E+00  0.0000E+00
     -3.692  0.2724E-28  0.1421E-17  0.0000E+00
     -3.597  0.8453E-05  0.8359E+00  0.0000E+00
     -3.502  0.1899E-03  0.9357E+01  0.0000E+00
     -3.407  0.0000E+00  0.0000E+00  0.0000E+00
     -3.312  0.0000E+00  0.0000E+00  0.0000E+00
     -3.217  0.0000E+00  0.0000E+00  0.0000E+00
     -3.122  0.0000E+00  0.0000E+00  0.0000E+00
     -3.027  0.0000E+00  0.0000E+00  0.0000E+00
     -2.932  0.0000E+00  0.0000E+00  0.0000E+00
     -2.837  0.0000E+00  0.0000E+00  0.0000E+00
     -2.742  0.0000E+00  0.0000E+00  0.0000E+00
     -2.647  0.0000E+00  0.0000E+00  0.0000E+00
     -2.553  0.0000E+00  0.0000E+00  0.0000E+00
     -2.458  0.0000E+00  0.0000E+00  0.0000E+00
     -2.363  0.0000E+00  0.0000E+00  0.0000E+00
     -2.268  0.1230E-11  0.1325E-08  0.0000E+00
     -2.173  0.2680E-04  0.4355E-02  0.0000E+00
     -2.078  0.4750E-03  0.1354E-01  0.0000E+00
     -1.983  0.2185E-03  0.8222E-02  0.0000E+00
     -1.888  0.2877E-03  0.6486E-02  0.0000E+00
     -1.793  0.3195E-03  0.4820E-02  0.0000E+00
     -1.698  0.3495E-03  0.1087E-01  0.0000E+00
     -1.603  0.5502E-03  0.9799E-02  0.0000E+00
     -1.508  0.4657E-03  0.9474E-02  0.0000E+00
     -1.414  0.1214E-03  0.3410E-02  0.0000E+00
     -1.319  0.7421E-10  0.5505E-03  0.0000E+00
     -1.224  0.0000E+00  0.0000E+00  0.0000E+00
     -1.129  0.3193E-03  0.2924E-03  0.0000E+00
     -1.034  0.3239E-02  0.5418E-02  0.0000E+00
     -0.939  0.7425E-02  0.3086E-01  0.0000E+00
     -0.844  0.6276E-02  0.2098E-01  0.0000E+00
     -0.749  0.7182E-02  0.4352E-01  0.0000E+00
     -0.654  0.4575E-02  0.2171E-01  0.0000E+00
     -0.559  0.2085E-02  0.1583E-01  0.0000E+00
     -0.464  0.3631E-02  0.2609E-01  0.0000E+00
     -0.369  0.1099E-02  0.1169E-01  0.0000E+00
     -0.274  0.2221E-02  0.2524E-01  0.0000E+00
     -0.180  0.1556E-02  0.2672E-01  0.0000E+00
     -0.085  0.4977E-03  0.1407E-01  0.0000E+00
      0.010  0.3936E-02  0.2440E-01  0.0000E+00
      0.105  0.1432E-02  0.1418E-01  0.0000E+00
      0.200  0.2277E-02  0.2369E-01  0.0000E+00
      0.295  0.1776E-02  0.1248E-01  0.0000E+00
      0.390  0.3348E-02  0.2864E-01  0.0000E+00
      0.485  0.4327E-02  0.3452E-01  0.0000E+00
      0.580  0.1098E-02  0.6619E-02  0.0000E+00
      0.675  0.1485E-02  0.1051E-01  0.0000E+00
      0.770  0.5722E-03  0.3438E-02  0.0000E+00
      0.865  0.1289E-04  0.5213E-03  0.0000E+00
      0.959  0.1589E-03  0.1072E-02  0.0000E+00
      1.054  0.2730E-04  0.4224E-03  0.0000E+00
      1.149  0.1637E-07  0.3368E-03  0.0000E+00
      1.244  0.2686E-10  0.5549E-04  0.0000E+00
      1.339  0.9482E-15  0.2711E-07  0.0000E+00
      1.434  0.1785E-12  0.5103E-05  0.0000E+00
      1.529  0.0000E+00  0.0000E+00  0.0000E+00
      1.624  0.0000E+00  0.0000E+00  0.0000E+00
      1.719  0.0000E+00  0.0000E+00  0.0000E+00
      1.814  0.0000E+00  0.0000E+00  0.0000E+00
      1.909  0.0000E+00  0.0000E+00  0.0000E+00
      2.004  0.0000E+00  0.0000E+00  0.0000E+00
      2.099  0.0000E+00  0.0000E+00  0.0000E+00
      2.193  0.0000E+00  0.0000E+00  0.0000E+00
      2.288  0.0000E+00  0.0000E+00  0.0000E+00
      2.383  0.0000E+00  0.0000E+00  0.0000E+00
      2.478  0.0000E+00  0.0000E+00  0.0000E+00
      2.573  0.0000E+00  0.0000E+00  0.0000E+00
      2.668  0.0000E+00  0.0000E+00  0.0000E+00
      2.763  0.2504E-11  0.4670E-11  0.0000E+00
      2.858  0.1040E-04  0.2631E-04  0.0000E+00
      2.953  0.4151E-04  0.1278E-03  0.0000E+00
      3.048  0.6705E-04  0.3166E-03  0.0000E+00
      3.143  0.2220E-04  0.1181E-03  0.0000E+00
      3.238  0.1377E-03  0.4324E-03  0.0000E+00
      3.332  0.1158E-03  0.3148E-03  0.0000E+00
      3.427  0.1658E-03  0.2721E-03  0.0000E+00
      3.522  0.4091E-03  0.6166E-03  0.0000E+00
      3.617  0.2056E-03  0.3960E-03  0.0000E+00
      3.712  0.0000E+00  0.0000E+00  0.0000E+00
      3.807  0.3400E-04  0.2485E-03  0.0000E+00
      3.902  0.6677E-05  0.6609E-04  0.0000E+00
      3.997  0.3562E-04  0.5710E-03  0.0000E+00
      4.092  0.7676E-04  0.6453E-03  0.0000E+00
      4.187  0.1967E-04  0.4389E-03  0.0000E+00
      4.282  0.2411E-03  0.1133E-02  0.0000E+00
      4.377  0.1751E-03  0.1066E-02  0.0000E+00
      4.472  0.1658E-03  0.7729E-03  0.0000E+00
      4.566  0.8771E-04  0.1698E-03  0.0000E+00
      4.661  0.2979E-04  0.6802E-04  0.0000E+00
      4.756  0.2878E-02  0.1436E-02  0.0000E+00
      4.851  0.3143E-04  0.2040E-04  0.0000E+00
      4.946  0.9219E-02  0.5981E-02  0.0000E+00
      5.041  0.7812E-02  0.6595E-02  0.0000E+00
      5.136  0.2500E-01  0.2368E-01  0.0000E+00
      5.231  0.1488E-01  0.1914E-01  0.0000E+00
      5.326  0.2782E-02  0.5046E-02  0.0000E+00
      5.421  0.8119E-02  0.1144E-01  0.0000E+00
      5.516  0.2408E-01  0.2804E-01  0.0000E+00
      5.611  0.2265E-01  0.2140E-01  0.0000E+00
      5.705  0.4966E-01  0.3544E-01  0.0000E+00
      5.800  0.2632E-01  0.2913E-01  0.0000E+00
      5.895  0.3182E-01  0.4821E-01  0.0000E+00
      5.990  0.1639E-01  0.5832E-01  0.0000E+00
      6.085  0.3543E-01  0.4496E-01  0.0000E+00
      6.180  0.1228E+00  0.3875E-01  0.0000E+00
      6.275  0.1287E+00  0.3924E-01  0.0000E+00
      6.370  0.8050E-01  0.4401E-01  0.0000E+00
      6.465  0.1180E+00  0.7119E-01  0.0000E+00
      6.560  0.6636E-01  0.4776E-01  0.0000E+00
      6.655  0.2802E-01  0.2236E-01  0.0000E+00
      6.750  0.3071E-01  0.5577E-01  0.0000E+00
      6.844  0.2183E-01  0.7789E-01  0.0000E+00
      6.939  0.1938E-01  0.9261E-01  0.0000E+00
      7.034  0.2661E-01  0.8886E-01  0.0000E+00
      7.129  0.3320E-01  0.6566E-01  0.0000E+00
      7.224  0.1059E-01  0.6750E-01  0.0000E+00
      7.319  0.2465E-02  0.2237E-01  0.0000E+00
      7.414  0.2611E-01  0.6224E-01  0.0000E+00
      7.509  0.7557E-02  0.2920E-01  0.0000E+00
      7.604  0.5411E-03  0.7083E-02  0.0000E+00
      7.699  0.1983E-03  0.5373E-02  0.0000E+00
      7.794  0.1226E-04  0.2154E-02  0.0000E+00
      7.889  0.0000E+00  0.0000E+00  0.0000E+00
      7.984  0.0000E+00  0.0000E+00  0.0000E+00
      8.078  0.0000E+00  0.0000E+00  0.0000E+00
      8.173  0.0000E+00  0.0000E+00  0.0000E+00
      8.268  0.0000E+00  0.0000E+00  0.0000E+00
      8.363  0.0000E+00  0.0000E+00  0.0000E+00
      8.458  0.0000E+00  0.0000E+00  0.0000E+00
      8.553  0.0000E+00  0.0000E+00  0.0000E+00
      8.648  0.0000E+00  0.0000E+00  0.0000E+00
      8.743  0.0000E+00  0.0000E+00  0.0000E+00
      8.838  0.0000E+00  0.0000E+00  0.0000E+00
      8.933  0.0000E+00  0.0000E+00  0.0000E+00
      9.028  0.0000E+00  0.0000E+00  0.0000E+00
      9.02764589    -19.44822806  301      1.44001198      1.00000000
    -19.448  0.0000E+00  0.0000E+00  0.0000E+00
    -19.353  0.0000E+00  0.0000E+00  0.0000E+00
    -19.258  0.0000E+00  0.0000E+00  0.0000E+00
    -19.163  0.0000E+00  0.0000E+00  0.0000E+00
    -19.069  0.0000E+00  0.0000E+00  0.0000E+00
    -18.974  0.0000E+00  0.0000E+00  0.0000E+00
    -18.879  0.0000E+00  0.0000E+00  0.0000E+00
    -18.784  0.0000E+00  0.0000E+00  0.0000E+00
    -18.689  0.0000E+00  0.0000E+00  0.0000E+00
    -18.594  0.0000E+00  0.0000E+00  0.0000E+00
    -18.499  0.0000E+00  0.0000E+00  0.0000E+00
    -18.404  0.0000E+00  0.0000E+00  0.0000E+00
    -18.309  0.0000E+00  0.0000E+00  0.0000E+00
    -18.214  0.0000E+00  0.0000E+00  0.0000E+00
    -18.119  0.1164E+02  0.4631E-02  0.0000E+00
    -18.024  0.0000E+00  0.0000E+00  0.0000E+00
    -17.930  0.0000E+00  0.0000E+00  0.0000E+00
    -17.835  0.0000E+00  0.0000E+00  0.0000E+00
    -17.740  0.0000E+00  0.0000E+00  0.0000E+00
    -17.645  0.0000E+00  0.0000E+00  0.0000E+00
    -17.550  0.0000E+00  0.0000E+00  0.0000E+00
    -17.455  0.0000E+00  0.0000E+00  0.0000E+00
    -17.360  0.0000E+00  0.0000E+00  0.0000E+00
    -17.265  0.0000E+00  0.0000E+00  0.0000E+00
    -17.170  0.0000E+00  0.0000E+00  0.0000E+00
    -17.075  0.0000E+00  0.0000E+00  0.0000E+00
    -16.980  0.0000E+00  0.0000E+00  0.0000E+00
    -16.885  0.0000E+00  0.0000E+00  0.0000E+00
    -16.790  0.0000E+00  0.0000E+00  0.0000E+00
    -16.696  0.0000E+00  0.0000E+00  0.0000E+00
    -16.601  0.0000E+00  0.0000E+00  0.0000E+00
    -16.506  0.0000E+00  0.0000E+00  0.0000E+00
    -16.411  0.0000E+00  0.0000E+00  0.0000E+00
    -16.316  0.0000E+00  0.0000E+00  0.0000E+00
    -16.221  0.0000E+00  0.0000E+00  0.0000E+00
    -16.126  0.0000E+00  0.0000E+00  0.0000E+00
    -16.031  0.0000E+00  0.0000E+00  0.0000E+00
    -15.936  0.0000E+00  0.0000E+00  0.0000E+00
    -15.841  0.0000E+00  0.0000E+00  0.0000E+00
    -15.746  0.0000E+00  0.0000E+00  0.0000E+00
    -15.651  0.0000E+00  0.0000E+00  0.0000E+00
    -15.557  0.0000E+00  0.0000E+00  0.0000E+00
    -15.462  0.0000E+00  0.0000E+00  0.0000E+00
    -15.367  0.0000E+00  0.0000E+00  0.0000E+00
    -15.272  0.0000E+00  0.0000E+00  0.0000E+00
    -15.177  0.8312E-05  0.1363E-04  0.0000E+00
    -15.082  0.6656E-04  0.1778E-04  0.0000E+00
    -14.987  0.0000E+00  0.0000E+00  0.0000E+00
    -14.892  0.0000E+00  0.0000E+00  0.0000E+00
    -14.797  0.0000E+00  0.0000E+00  0.0000E+00
    -14.702  0.0000E+00  0.0000E+00  0.0000E+00
    -14.607  0.0000E+00  0.0000E+00  0.0000E+00
    -14.512  0.0000E+00  0.0000E+00  0.0000E+00
    -14.417  0.0000E+00  0.0000E+00  0.0000E+00
    -14.323  0.0000E+00  0.0000E+00  0.0000E+00
    -14.228  0.0000E+00  0.0000E+00  0.0000E+00
    -14.133  0.0000E+00  0.0000E+00  0.0000E+00
    -14.038  0.0000E+00  0.0000E+00  0.0000E+00
    -13.943  0.0000E+00  0.0000E+00  0.0000E+00
    -13.848  0.0000E+00  0.0000E+00  0.0000E+00
    -13.753  0.0000E+00  0.0000E+00  0.0000E+00
    -13.658  0.0000E+00  0.0000E+00  0.0000E+00
    -13.563  0.0000E+00  0.0000E+00  0.0000E+00
    -13.468  0.0000E+00  0.0000E+00  0.0000E+00
    -13.373  0.0000E+00  0.0000E+00  0.0000E+00
    -13.278  0.0000E+00  0.0000E+00  0.0000E+00
    -13.184  0.0000E+00  0.0000E+00  0.0000E+00
    -13.089  0.0000E+00  0.0000E+00  0.0000E+00
    -12.994  0.0000E+00  0.0000E+00  0.0000E+00
    -12.899  0.0000E+00  0.0000E+00  0.0000E+00
    -12.804  0.0000E+00  0.0000E+00  0.0000E+00
    -12.709  0.0000E+00  0.0000E+00  0.0000E+00
    -12.614  0.0000E+00  0.0000E+00  0.0000E+00
    -12.519  0.0000E+00  0.0000E+00  0.0000E+00
    -12.424  0.0000E+00  0.0000E+00  0.0000E+00
    -12.329  0.0000E+00  0.0000E+00  0.0000E+00
    -12.234  0.0000E+00  0.0000E+00  0.0000E+00
    -12.139  0.0000E+00  0.0000E+00  0.0000E+00
    -12.045  0.0000E+00  0.0000E+00  0.0000E+00
    -11.950  0.0000E+00  0.0000E+00  0.0000E+00
    -11.855  0.0000E+00  0.0000E+00  0.0000E+00
    -11.760  0.0000E+00  0.0000E+00  0.0000E+00
    -11.665  0.0000E+00  0.0000E+00  0.0000E+00
    -11.570  0.0000E+00  0.0000E+00  0.0000E+00
    -11.475  0.0000E+00  0.0000E+00  0.0000E+00
    -11.380  0.2320E-06  0.1148E-05  0.0000E+00
    -11.285  0.1713E+00  0.7822E+00  0.0000E+00
    -11.190  0.3312E+00  0.1406E+01  0.0000E+00
    -11.095  0.0000E+00  0.0000E+00  0.0000E+00
    -11.000  0.1515E-12  0.1022E-12  0.0000E+00