 vasp.5.4.1 24Jun15 (build Nov 12 2015 13:14:48) complex                        
  
 executed on             IFC_2016 date 2015.12.23  12:24:40
 running on    8 total cores
 distrk:  each k-point on    8 cores,    1 groups
 distr:  one band on NCORES_PER_BAND=   1 cores,    8 groups


--------------------------------------------------------------------------------------------------------


 INCAR:
 POTCAR:   PAW C 31May2000                        
 POTCAR:   PAW N 31May2000                        
 POTCAR:   PAW H 06May1998                        
 POTCAR:   PAW Pb_d 30Apr1998                     
 POTCAR:   PAW I 03Oct2001                        

 ----------------------------------------------------------------------------- 
|                                                                             |
|           W    W    AA    RRRRR   N    N  II  N    N   GGGG   !!!           |
|           W    W   A  A   R    R  NN   N  II  NN   N  G    G  !!!           |
|           W    W  A    A  R    R  N N  N  II  N N  N  G       !!!           |
|           W WW W  AAAAAA  RRRRR   N  N N  II  N  N N  G  GGG   !            |
|           WW  WW  A    A  R   R   N   NN  II  N   NN  G    G                |
|           W    W  A    A  R    R  N    N  II  N    N   GGGG   !!!           |
|                                                                             |
|      For optimal performance we recommend to set                            |
|        NCORE= 4 - approx SQRT( number of cores)                             |
|      NCORE specifies how many cores store one orbital (NPAR=cpu/NCORE).     |
|      This setting can  greatly improve the performance of VASP for DFT.     |
|      The default, NPAR=number of cores might be grossly inefficient         |
|      on modern multi-core architectures or massively parallel machines.     |
|      Do your own testing !!!!                                               |
|      Unfortunately you need to use the default for GW and RPA calculations. |
|      (for HF NCORE is supported but not extensively tested yet)             |
|                                                                             |
 ----------------------------------------------------------------------------- 

 POTCAR:   PAW C 31May2000                        
   VRHFIN =C: s2p2                                                              
   LEXCH  = CA                                                                  
   EATOM  =   146.6877 eV,   10.7812 Ry                                         
                                                                                
   TITEL  = PAW C 31May2000                                                     
   LULTRA =        F    use ultrasoft PP ?                                      
   IUNSCR =        0    unscreen: 0-lin 1-nonlin 2-no                           
   RPACOR =     .000    partial core radius                                     
   POMASS =   12.011; ZVAL   =    4.000    mass and valenz                      
   RCORE  =    1.500    outmost cutoff radius                                   
   RWIGS  =    1.630; RWIGS  =     .863    wigner-seitz radius (au A)           
   ENMAX  =  400.000; ENMIN  =  300.000 eV                                      
   ICORE  =        2    local potential                                         
   LCOR   =        T    correct aug charges                                     
   LPAW   =        T    paw PP                                                  
   EAUG   =  644.873                                                            
   DEXC   =     .000                                                            
   RMAX   =    2.266    core radius for proj-oper                               
   RAUG   =    1.300    factor for augmentation sphere                          
   RDEP   =    1.501    radius for radial grids                                 
   RDEPT  =    1.300    core radius for aug-charge                              
   QCUT   =   -5.516; QGAM   =   11.032    optimization parameters              
                                                                                
   Description                                                                  
     l     E      TYP  RCUT    TYP  RCUT                                        
     0   .000     23  1.200                                                     
     0   .000     23  1.200                                                     
     1   .000     23  1.500                                                     
     1  2.500     23  1.500                                                     
     2   .000      7  1.500                                                     
  local pseudopotential read in
  atomic valenz-charges read in
  non local Contribution for L=           0  read in
    real space projection operators read in
  non local Contribution for L=           0  read in
    real space projection operators read in
  non local Contribution for L=           1  read in
    real space projection operators read in
  non local Contribution for L=           1  read in
    real space projection operators read in
    PAW grid and wavefunctions read in
 
   number of l-projection  operators is LMAX  =           4
   number of lm-projection operators is LMMAX =           8
 
 POTCAR:   PAW N 31May2000                        
   VRHFIN =N: s2p3                                                              
   LEXCH  = CA                                                                  
   EATOM  =   263.8773 eV,   19.3944 Ry                                         
                                                                                
   TITEL  = PAW N 31May2000                                                     
   LULTRA =        F    use ultrasoft PP ?                                      
   IUNSCR =        0    unscreen: 0-lin 1-nonlin 2-no                           
   RPACOR =     .000    partial core radius                                     
   POMASS =   14.001; ZVAL   =    5.000    mass and valenz                      
   RCORE  =    1.500    outmost cutoff radius                                   
   RWIGS  =    1.400; RWIGS  =     .741    wigner-seitz radius (au A)           
   ENMAX  =  400.000; ENMIN  =  300.000 eV                                      
   ICORE  =        2    local potential                                         
   LCOR   =        T    correct aug charges                                     
   LPAW   =        T    paw PP                                                  
   EAUG   =  555.011                                                            
   DEXC   =     .000                                                            
   RMAX   =    2.248    core radius for proj-oper                               
   RAUG   =    1.300    factor for augmentation sphere                          
   RDEP   =    1.514    core radius for depl-charge                             
   QCUT   =   -5.561; QGAM   =   11.121    optimization parameters              
                                                                                
   Description                                                                  
     l     E      TYP  RCUT    TYP  RCUT                                        
     0   .000     23  1.200                                                     
     0   .000     23  1.200                                                     
     1   .000     23  1.500                                                     
     1   .700     23  1.500                                                     
     2   .000      7  1.500                                                     
  local pseudopotential read in
  atomic valenz-charges read in
  non local Contribution for L=           0  read in
    real space projection operators read in
  non local Contribution for L=           0  read in
    real space projection operators read in
  non local Contribution for L=           1  read in
    real space projection operators read in
  non local Contribution for L=           1  read in
    real space projection operators read in
    PAW grid and wavefunctions read in
 
   number of l-projection  operators is LMAX  =           4
   number of lm-projection operators is LMMAX =           8
 
 POTCAR:   PAW H 06May1998                        
   VRHFIN =H: ultrasoft test                                                    
   LEXCH  = CA                                                                  
   EATOM  =    12.1334 eV,     .8918 Ry                                         
                                                                                
   TITEL  = PAW H 06May1998                                                     
   LULTRA =        F    use ultrasoft PP ?                                      
   IUNSCR =        0    unscreen: 0-lin 1-nonlin 2-no                           
   RPACOR =     .000    partial core radius                                     
   POMASS =    1.000; ZVAL   =    1.000    mass and valenz                      
   RCORE  =    1.100    outmost cutoff radius                                   
   RWIGS  =     .700; RWIGS  =     .370    wigner-seitz radius (au A)           
   ENMAX  =  250.000; ENMIN  =  200.000 eV                                      
   RCLOC  =     .701    cutoff for local pot                                    
   LCOR   =        T    correct aug charges                                     
   LPAW   =        T    paw PP                                                  
   EAUG   =  400.000                                                            
   RMAX   =    2.177    core radius for proj-oper                               
   RAUG   =    1.200    factor for augmentation sphere                          
   RDEP   =    1.112    core radius for depl-charge                             
   QCUT   =   -5.742; QGAM   =   11.483    optimization parameters              
                                                                                
   Description                                                                  
     l     E      TYP  RCUT    TYP  RCUT                                        
     0   .000     23  1.100                                                     
     0   .500     23  1.100                                                     
     1  -.300     23  1.100                                                     
  local pseudopotential read in
  atomic valenz-charges read in
  non local Contribution for L=           0  read in
    real space projection operators read in
  non local Contribution for L=           0  read in
    real space projection operators read in
  non local Contribution for L=           1  read in
    real space projection operators read in
    PAW grid and wavefunctions read in
 
   number of l-projection  operators is LMAX  =           3
   number of lm-projection operators is LMMAX =           5
 
 POTCAR:   PAW Pb_d 30Apr1998                     
   VRHFIN =Pb:                                                                  
   LEXCH  = CA                                                                  
   EATOM  =  1665.9092 eV,  122.4409 Ry                                         
                                                                                
   TITEL  = PAW Pb_d 30Apr1998                                                  
   LULTRA =        F    use ultrasoft PP ?                                      
   IUNSCR =        1    unscreen: 0-lin 1-nonlin 2-no                           
   RPACOR =    2.200    partial core radius                                     
   POMASS =  207.200; ZVAL   =   14.000    mass and valenz                      
   RCORE  =    2.500    outmost cutoff radius                                   
   RWIGS  =    3.260; RWIGS  =    1.725    wigner-seitz radius (au A)           
   ENMAX  =  237.817; ENMIN  =  178.363 eV                                      
   ICORE  =        3    local potential                                         
   LCOR   =        T    correct aug charges                                     
   LPAW   =        T    paw PP                                                  
   EAUG   =  391.914                                                            
   DEXC   =    -.002                                                            
   RMAX   =    2.990    core radius for proj-oper                               
   RAUG   =    1.300    factor for augmentation sphere                          
   RDEP   =    2.643    core radius for depl-charge                             
   QCUT   =   -4.181; QGAM   =    8.362    optimization parameters              
                                                                                
   Description                                                                  
     l     E      TYP  RCUT    TYP  RCUT                                        
     2   .000     23  2.500                                                     
     2   .100     23  2.500                                                     
     0   .000     23  2.500                                                     
     0  1.000     23  2.500                                                     
     1   .000     23  2.500                                                     
     1  1.000     23  2.500                                                     
     3  -.100      7  2.500                                                     
  local pseudopotential read in
  partial core-charges read in
  atomic valenz-charges read in
  non local Contribution for L=           2  read in
    real space projection operators read in
  non local Contribution for L=           2  read in
    real space projection operators read in
  non local Contribution for L=           0  read in
    real space projection operators read in
  non local Contribution for L=           0  read in
    real space projection operators read in
  non local Contribution for L=           1  read in
    real space projection operators read in
  non local Contribution for L=           1  read in
    real space projection operators read in
    PAW grid and wavefunctions read in
 
   number of l-projection  operators is LMAX  =           6
   number of lm-projection operators is LMMAX =          18
 
 POTCAR:   PAW I 03Oct2001                        
   VRHFIN =I : s2p5                                                             
   LEXCH  = CA                                                                  
   EATOM  =   318.2436 eV,   23.3902 Ry                                         
                                                                                
   TITEL  = PAW I 03Oct2001                                                     
   LULTRA =        F    use ultrasoft PP ?                                      
   IUNSCR =        1    unscreen: 0-lin 1-nonlin 2-no                           
   RPACOR =    2.200    partial core radius                                     
   POMASS =  126.904; ZVAL   =    7.000    mass and valenz                      
   RCORE  =    2.300    outmost cutoff radius                                   
   RWIGS  =    2.810; RWIGS  =    1.487    wigner-seitz radius (au A)           
   ENMAX  =  175.712; ENMIN  =  131.784 eV                                      
   ICORE  =        3    local potential                                         
   LCOR   =        T    correct aug charges                                     
   LPAW   =        T    paw PP                                                  
   EAUG   =  370.139                                                            
   DEXC   =    -.063                                                            
   RMAX   =    3.478    core radius for proj-oper                               
   RAUG   =    1.300    factor for augmentation sphere                          
   RDEP   =    2.392    radius for radial grids                                 
   QCUT   =   -3.594; QGAM   =    7.187    optimization parameters              
                                                                                
   Description                                                                  
     l     E      TYP  RCUT    TYP  RCUT                                        
     0   .000     23  2.300                                                     
     0   .000     23  2.300                                                     
     1   .000     23  2.300                                                     
     1   .000     23  2.300                                                     
     2   .000     23  2.300                                                     
     3  -.100     23  2.300                                                     
  local pseudopotential read in
  partial core-charges read in
  atomic valenz-charges read in
  non local Contribution for L=           0  read in
    real space projection operators read in
  non local Contribution for L=           0  read in
    real space projection operators read in
  non local Contribution for L=           1  read in
    real space projection operators read in
  non local Contribution for L=           1  read in
    real space projection operators read in
  non local Contribution for L=           2  read in
    real space projection operators read in
    PAW grid and wavefunctions read in
 
   number of l-projection  operators is LMAX  =           5
   number of lm-projection operators is LMMAX =          13
 
 PAW C 31May2000                        :
 energy of atom  1       EATOM= -146.6877
 kinetic energy error for atom=    0.0075 (will be added to EATOM!!)
 PAW N 31May2000                        :
 energy of atom  2       EATOM= -263.8773
 kinetic energy error for atom=    0.0135 (will be added to EATOM!!)
 PAW H 06May1998                        :
 energy of atom  3       EATOM=  -12.1334
 kinetic energy error for atom=    0.0018 (will be added to EATOM!!)
 PAW Pb_d 30Apr1998                     :
 energy of atom  4       EATOM=-1665.9092
 kinetic energy error for atom=    0.0047 (will be added to EATOM!!)
 PAW I 03Oct2001                        :
 energy of atom  5       EATOM= -318.2436
 kinetic energy error for atom=    0.0009 (will be added to EATOM!!)
 
 
 POSCAR: MA-Pb-I (Github)                        
  positions in direct lattice
  No initial velocities read in
 exchange correlation table for  LEXCH =        2
   RHO(1)=    0.500       N(1)  =     2000
   RHO(2)=  100.500       N(2)  =     4000
 


--------------------------------------------------------------------------------------------------------


 ion  position               nearest neighbor table
   1  0.903  1.000  0.996-   3 1.10   5 1.10   4 1.10   2 1.48
   2  0.137  1.000  0.025-   6 1.04   7 1.04   8 1.05   1 1.48
   3  0.865  1.000  0.826-   1 1.10
   4  0.838  0.144  0.072-   1 1.10
   5  0.838  0.857  0.072-   1 1.10
   6  0.208  0.134  0.958-   2 1.04
   7  0.207  0.865  0.958-   2 1.04
   8  0.182  0.000  0.185-   2 1.05
   9  0.476  0.500  0.476-  12 3.07  10 3.15  11 3.15  11 3.15  10 3.18  12 3.23
  10  0.427  0.500  0.973-   9 3.15   9 3.18
  11  0.436  0.000  0.507-   9 3.15   9 3.15
  12  0.963  0.500  0.448-   9 3.07   9 3.23
 
  LATTYP: Found a simple monoclinic cell.
 ALAT       =     6.2901201248
 B/A-ratio  =     0.9974197462
 C/A-ratio  =     1.4105278383
 COS(beta)  =    -0.7044835581
  
  Lattice vectors:
  
 A1 = (  -6.2901201248,   0.0000000000,   0.0000000000)
 A2 = (  -0.0000776940,  -6.2738900180,   0.0000000000)
 A3 = (   6.2504525538,  -0.0001537931,   6.2969150416)


Analysis of symmetry for initial positions (statically):
=====================================================================
 Subroutine PRICEL returns:
 Original cell was already a primitive cell.
 

 Routine SETGRP: Setting up the symmetry group for a 
 simple monoclinic supercell.


 Subroutine GETGRP returns: Found  1 space group operations
 (whereof  1 operations were pure point group operations)
 out of a pool of  4 trial point group operations.


The static configuration has the point symmetry C_1 .


Analysis of symmetry for dynamics (positions and initial velocities):
=====================================================================
 Subroutine PRICEL returns:
 Original cell was already a primitive cell.
 

 Routine SETGRP: Setting up the symmetry group for a 
 simple monoclinic supercell.


 Subroutine GETGRP returns: Found  1 space group operations
 (whereof  1 operations were pure point group operations)
 out of a pool of  4 trial point group operations.


The dynamic configuration has the point symmetry C_1 .


 Subroutine INISYM returns: Found  1 space group operations
 (whereof  1 operations are pure point group operations),
 and found     1 'primitive' translations

 
 
 KPOINTS: Automatic mesh                          

Automatic generation of k-mesh.
Space group operators:
 irot       det(A)        alpha          n_x          n_y          n_z        tau_x        tau_y        tau_z
    1     1.000000     0.000000     1.000000     0.000000     0.000000     0.000000     0.000000     0.000000
 
 Subroutine IBZKPT returns following result:
 ===========================================
 
 Found    112 irreducible k-points:
 
 Following reciprocal coordinates:
            Coordinates               Weight
  0.000000  0.000000  0.000000      1.000000
  0.166667  0.000000  0.000000      2.000000
  0.333333  0.000000  0.000000      2.000000
  0.500000  0.000000  0.000000      1.000000
  0.000000  0.166667  0.000000      2.000000
  0.166667  0.166667  0.000000      2.000000
  0.333333  0.166667  0.000000      2.000000
  0.500000  0.166667  0.000000      2.000000
 -0.333333  0.166667 -0.000000      2.000000
 -0.166667  0.166667 -0.000000      2.000000
  0.000000  0.333333  0.000000      2.000000
  0.166667  0.333333  0.000000      2.000000
  0.333333  0.333333  0.000000      2.000000
  0.500000  0.333333  0.000000      2.000000
 -0.333333  0.333333  0.000000      2.000000
 -0.166667  0.333333 -0.000000      2.000000
  0.000000  0.500000  0.000000      1.000000
  0.166667  0.500000  0.000000      2.000000
  0.333333  0.500000  0.000000      2.000000
  0.500000  0.500000  0.000000      1.000000
  0.000000  0.000000  0.166667      2.000000
  0.166667  0.000000  0.166667      2.000000
  0.333333  0.000000  0.166667      2.000000
  0.500000  0.000000  0.166667      2.000000
 -0.333333 -0.000000  0.166667      2.000000
 -0.166667 -0.000000  0.166667      2.000000
  0.000000  0.166667  0.166667      2.000000
  0.166667  0.166667  0.166667      2.000000
  0.333333  0.166667  0.166667      2.000000
  0.500000  0.166667  0.166667      2.000000
 -0.333333  0.166667  0.166667      2.000000
 -0.166667  0.166667  0.166667      2.000000
  0.000000  0.333333  0.166667      2.000000
  0.166667  0.333333  0.166667      2.000000
  0.333333  0.333333  0.166667      2.000000
  0.500000  0.333333  0.166667      2.000000
 -0.333333  0.333333  0.166667      2.000000
 -0.166667  0.333333  0.166667      2.000000
  0.000000  0.500000  0.166667      2.000000
  0.166667  0.500000  0.166667      2.000000
  0.333333  0.500000  0.166667      2.000000
  0.500000  0.500000  0.166667      2.000000
 -0.333333  0.500000  0.166667      2.000000
 -0.166667  0.500000  0.166667      2.000000
  0.000000 -0.333333  0.166667      2.000000
  0.166667 -0.333333  0.166667      2.000000
  0.333333 -0.333333  0.166667      2.000000
  0.500000 -0.333333  0.166667      2.000000
 -0.333333 -0.333333  0.166667      2.000000
 -0.166667 -0.333333  0.166667      2.000000
  0.000000 -0.166667  0.166667      2.000000
  0.166667 -0.166667  0.166667      2.000000
  0.333333 -0.166667  0.166667      2.000000
  0.500000 -0.166667  0.166667      2.000000
 -0.333333 -0.166667  0.166667      2.000000
 -0.166667 -0.166667  0.166667      2.000000
  0.000000  0.000000  0.333333      2.000000
  0.166667  0.000000  0.333333      2.000000
  0.333333  0.000000  0.333333      2.000000
  0.500000  0.000000  0.333333      2.000000
 -0.333333 -0.000000  0.333333      2.000000
 -0.166667 -0.000000  0.333333      2.000000
  0.000000  0.166667  0.333333      2.000000
  0.166667  0.166667  0.333333      2.000000
  0.333333  0.166667  0.333333      2.000000
  0.500000  0.166667  0.333333      2.000000
 -0.333333  0.166667  0.333333      2.000000
 -0.166667  0.166667  0.333333      2.000000
  0.000000  0.333333  0.333333      2.000000
  0.166667  0.333333  0.333333      2.000000
  0.333333  0.333333  0.333333      2.000000
  0.500000  0.333333  0.333333      2.000000
 -0.333333  0.333333  0.333333      2.000000
 -0.166667  0.333333  0.333333      2.000000
  0.000000  0.500000  0.333333      2.000000
  0.166667  0.500000  0.333333      2.000000
  0.333333  0.500000  0.333333      2.000000
  0.500000  0.500000  0.333333      2.000000
 -0.333333  0.500000  0.333333      2.000000
 -0.166667  0.500000  0.333333      2.000000
  0.000000 -0.333333  0.333333      2.000000
  0.166667 -0.333333  0.333333      2.000000
  0.333333 -0.333333  0.333333      2.000000
  0.500000 -0.333333  0.333333      2.000000
 -0.333333 -0.333333  0.333333      2.000000
 -0.166667 -0.333333  0.333333      2.000000
  0.000000 -0.166667  0.333333      2.000000
  0.166667 -0.166667  0.333333      2.000000
  0.333333 -0.166667  0.333333      2.000000
  0.500000 -0.166667  0.333333      2.000000
 -0.333333 -0.166667  0.333333      2.000000
 -0.166667 -0.166667  0.333333      2.000000
  0.000000  0.000000  0.500000      1.000000
  0.166667  0.000000  0.500000      2.000000
  0.333333  0.000000  0.500000      2.000000
  0.500000  0.000000  0.500000      1.000000
  0.000000  0.166667  0.500000      2.000000
  0.166667  0.166667  0.500000      2.000000
  0.333333  0.166667  0.500000      2.000000
  0.500000  0.166667  0.500000      2.000000
 -0.333333  0.166667  0.500000      2.000000
 -0.166667  0.166667  0.500000      2.000000
  0.000000  0.333333  0.500000      2.000000
  0.166667  0.333333  0.500000      2.000000
  0.333333  0.333333  0.500000      2.000000
  0.500000  0.333333  0.500000      2.000000
 -0.333333  0.333333  0.500000      2.000000
 -0.166667  0.333333  0.500000      2.000000
  0.000000  0.500000  0.500000      1.000000
  0.166667  0.500000  0.500000      2.000000
  0.333333  0.500000  0.500000      2.000000
  0.500000  0.500000  0.500000      1.000000
 
 Following cartesian coordinates:
            Coordinates               Weight
  0.000000  0.000000  0.000000      1.000000
  0.026497 -0.000000  0.000167      2.000000
  0.052993 -0.000001  0.000334      2.000000
  0.079490 -0.000001  0.000501      1.000000
  0.000000  0.026565  0.000001      2.000000
  0.026497  0.026565  0.000168      2.000000
  0.052993  0.026564  0.000334      2.000000
  0.079490  0.026564  0.000501      2.000000
 -0.052993  0.026566 -0.000333      2.000000
 -0.026497  0.026565 -0.000166      2.000000
  0.000000  0.053130  0.000001      2.000000
  0.026497  0.053130  0.000168      2.000000
  0.052993  0.053130  0.000335      2.000000
  0.079490  0.053129  0.000502      2.000000
 -0.052993  0.053131 -0.000333      2.000000
 -0.026497  0.053131 -0.000166      2.000000
  0.000000  0.079695  0.000002      1.000000
  0.026497  0.079695  0.000169      2.000000
  0.052993  0.079695  0.000336      2.000000
  0.079490  0.079694  0.000503      1.000000
  0.000000  0.000000  0.026468      2.000000
  0.026497 -0.000000  0.026635      2.000000
  0.052993 -0.000001  0.026802      2.000000
  0.079490 -0.000001  0.026969      2.000000
 -0.052993  0.000001  0.026134      2.000000
 -0.026497  0.000000  0.026301      2.000000
  0.000000  0.026565  0.026469      2.000000
  0.026497  0.026565  0.026636      2.000000
  0.052993  0.026564  0.026802      2.000000
  0.079490  0.026564  0.026969      2.000000
 -0.052993  0.026566  0.026135      2.000000
 -0.026497  0.026565  0.026302      2.000000
  0.000000  0.053130  0.026469      2.000000
  0.026497  0.053130  0.026636      2.000000
  0.052993  0.053130  0.026803      2.000000
  0.079490  0.053129  0.026970      2.000000
 -0.052993  0.053131  0.026135      2.000000
 -0.026497  0.053131  0.026302      2.000000
  0.000000  0.079695  0.026470      2.000000
  0.026497  0.079695  0.026637      2.000000
  0.052993  0.079695  0.026804      2.000000
  0.079490  0.079694  0.026971      2.000000
 -0.052993  0.079696  0.026136      2.000000
 -0.026497  0.079696  0.026303      2.000000
  0.000000 -0.053130  0.026467      2.000000
  0.026497 -0.053131  0.026634      2.000000
  0.052993 -0.053131  0.026801      2.000000
  0.079490 -0.053131  0.026967      2.000000
 -0.052993 -0.053130  0.026133      2.000000
 -0.026497 -0.053130  0.026300      2.000000
  0.000000 -0.026565  0.026467      2.000000
  0.026497 -0.026565  0.026634      2.000000
  0.052993 -0.026566  0.026801      2.000000
  0.079490 -0.026566  0.026968      2.000000
 -0.052993 -0.026564  0.026134      2.000000
 -0.026497 -0.026565  0.026300      2.000000
  0.000000  0.000000  0.052936      2.000000
  0.026497 -0.000000  0.053103      2.000000
  0.052993 -0.000001  0.053270      2.000000
  0.079490 -0.000001  0.053437      2.000000
 -0.052993  0.000001  0.052602      2.000000
 -0.026497  0.000000  0.052769      2.000000
  0.000000  0.026565  0.052937      2.000000
  0.026497  0.026565  0.053104      2.000000
  0.052993  0.026564  0.053270      2.000000
  0.079490  0.026564  0.053437      2.000000
 -0.052993  0.026566  0.052603      2.000000
 -0.026497  0.026565  0.052770      2.000000
  0.000000  0.053130  0.052937      2.000000
  0.026497  0.053130  0.053104      2.000000
  0.052993  0.053130  0.053271      2.000000
  0.079490  0.053129  0.053438      2.000000
 -0.052993  0.053131  0.052603      2.000000
 -0.026497  0.053131  0.052770      2.000000
  0.000000  0.079695  0.052938      2.000000
  0.026497  0.079695  0.053105      2.000000
  0.052993  0.079695  0.053272      2.000000
  0.079490  0.079694  0.053439      2.000000
 -0.052993  0.079696  0.052604      2.000000
 -0.026497  0.079696  0.052771      2.000000
  0.000000 -0.053130  0.052935      2.000000
  0.026497 -0.053131  0.053102      2.000000
  0.052993 -0.053131  0.053269      2.000000
  0.079490 -0.053131  0.053435      2.000000
 -0.052993 -0.053130  0.052601      2.000000
 -0.026497 -0.053130  0.052768      2.000000
  0.000000 -0.026565  0.052935      2.000000
  0.026497 -0.026565  0.053102      2.000000
  0.052993 -0.026566  0.053269      2.000000
  0.079490 -0.026566  0.053436      2.000000
 -0.052993 -0.026564  0.052601      2.000000
 -0.026497 -0.026565  0.052768      2.000000
  0.000000  0.000000  0.079404      1.000000
  0.026497 -0.000000  0.079571      2.000000
  0.052993 -0.000001  0.079738      2.000000
  0.079490 -0.000001  0.079905      1.000000
  0.000000  0.026565  0.079405      2.000000
  0.026497  0.026565  0.079572      2.000000
  0.052993  0.026564  0.079738      2.000000
  0.079490  0.026564  0.079905      2.000000
 -0.052993  0.026566  0.079071      2.000000
 -0.026497  0.026565  0.079238      2.000000
  0.000000  0.053130  0.079405      2.000000
  0.026497  0.053130  0.079572      2.000000
  0.052993  0.053130  0.079739      2.000000
  0.079490  0.053129  0.079906      2.000000
 -0.052993  0.053131  0.079071      2.000000
 -0.026497  0.053131  0.079238      2.000000
  0.000000  0.079695  0.079406      1.000000
  0.026497  0.079695  0.079573      2.000000
  0.052993  0.079695  0.079740      2.000000
  0.079490  0.079694  0.079907      1.000000
 


--------------------------------------------------------------------------------------------------------




 Dimension of arrays:
   k-points           NKPTS =    112   k-points in BZ     NKDIM =    112   number of bands    NBANDS=     32
   number of dos      NEDOS =    301   number of ions     NIONS =     12
   non local maximal  LDIM  =      6   non local SUM 2l+1 LMDIM =     18
   total plane-waves  NPLWV = 110592
   max r-space proj   IRMAX =      1   max aug-charges    IRDMAX=  25940
   dimension x,y,z NGX =    48 NGY =   48 NGZ =   48
   dimension x,y,z NGXF=    96 NGYF=   96 NGZF=   96
   support grid    NGXF=    96 NGYF=   96 NGZF=   96
   ions per type =               1   1   6   1   3
 NGX,Y,Z   is equivalent  to a cutoff of  12.69, 12.72, 12.67 a.u.
 NGXF,Y,Z  is equivalent  to a cutoff of  25.37, 25.44, 25.34 a.u.


 I would recommend the setting:
   dimension x,y,z NGX =    46 NGY =   46 NGZ =   46
 SYSTEM =  Name                                    
 POSCAR =  MA-Pb-I (Github)                        

 Startparameter for this run:
   NWRITE =      2    write-flag & timer
   PREC   = accura    normal or accurate (medium, high low for compatibility)
   ISTART =      0    job   : 0-new  1-cont  2-samecut
   ICHARG =      2    charge: 1-file 2-atom 10-const
   ISPIN  =      1    spin polarized calculation?
   LNONCOLLINEAR =      F non collinear calculations
   LSORBIT =      F    spin-orbit coupling
   INIWAV =      1    electr: 0-lowe 1-rand  2-diag
   LASPH  =      F    aspherical Exc in radial PAW
   METAGGA=      F    non-selfconsistent MetaGGA calc.

 Electronic Relaxation 1
   ENCUT  =  500.0 eV  36.75 Ry    6.06 a.u.  11.47 11.44 11.48*2*pi/ulx,y,z
   ENINI  =  500.0     initial cutoff
   ENAUG  =  644.9 eV  augmentation charge cutoff
   NELM   =     60;   NELMIN=  2; NELMDL=  0     # of ELM steps 
   EDIFF  = 0.1E-05   stopping-criterion for ELM
   LREAL  =      F    real-space projection
   NLSPLINE    = F    spline interpolate recip. space projectors
   LCOMPAT=      F    compatible to vasp.4.4
   GGA_COMPAT  = T    GGA compatible to vasp.4.4-vasp.4.6
   LMAXPAW     = -100 max onsite density
   LMAXMIX     =    2 max onsite mixed and CHGCAR
   VOSKOWN=      0    Vosko Wilk Nusair interpolation
   ROPT   =    0.00000   0.00000   0.00000   0.00000
   ROPT   =    0.00000
 Ionic relaxation
   EDIFFG = -.5E-02   stopping-criterion for IOM
   NSW    =      0    number of steps for IOM
   NBLOCK =      1;   KBLOCK =      1    inner block; outer block 
   IBRION =     -1    ionic relax: 0-MD 1-quasi-New 2-CG
   NFREE  =      1    steps in history (QN), initial steepest desc. (CG)
   ISIF   =      3    stress and relaxation
   IWAVPR =     10    prediction:  0-non 1-charg 2-wave 3-comb
   ISYM   =      2    0-nonsym 1-usesym 2-fastsym
   LCORR  =      T    Harris-Foulkes like correction to forces

   POTIM  = 0.5000    time-step for ionic-motion
   TEIN   =    0.0    initial temperature
   TEBEG  =    0.0;   TEEND  =   0.0 temperature during run
   SMASS  =  -3.00    Nose mass-parameter (am)
   estimated Nose-frequenzy (Omega)   =  0.10E-29 period in steps =****** mass=  -0.904E-27a.u.
   SCALEE = 1.0000    scale energy and forces
   NPACO  =    256;   APACO  = 16.0  distance and # of slots for P.C.
   PSTRESS=    0.0 pullay stress

  Mass of Ions in am
   POMASS =  12.01 14.00  1.00207.20126.90
  Ionic Valenz
   ZVAL   =   4.00  5.00  1.00 14.00  7.00
  Atomic Wigner-Seitz radii
   RWIGS  =  -1.00 -1.00 -1.00 -1.00 -1.00
  virtual crystal weights 
   VCA    =   1.00  1.00  1.00  1.00  1.00
   NELECT =      50.0000    total number of electrons
   NUPDOWN=      -1.0000    fix difference up-down

 DOS related values:
   EMIN   =  10.00;   EMAX   =-10.00  energy-range for DOS
   EFERMI =   0.00
   ISMEAR =     0;   SIGMA  =   0.01  broadening in eV -4-tet -1-fermi 0-gaus

 Electronic relaxation 2 (details)
   IALGO  =     38    algorithm
   LDIAG  =      T    sub-space diagonalisation (order eigenvalues)
   LSUBROT=      F    optimize rotation matrix (better conditioning)
   TURBO    =      0    0=normal 1=particle mesh
   IRESTART =      0    0=no restart 2=restart with 2 vectors
   NREBOOT  =      0    no. of reboots
   NMIN     =      0    reboot dimension
   EREF     =   0.00    reference energy to select bands
   IMIX   =      4    mixing-type and parameters
     AMIX     =   0.40;   BMIX     =  1.00
     AMIX_MAG =   1.60;   BMIX_MAG =  1.00
     AMIN     =   0.01
     WC   =   100.;   INIMIX=   1;  MIXPRE=   1;  MAXMIX= -45

 Intra band minimization:
   WEIMIN = 0.0000     energy-eigenvalue tresh-hold
   EBREAK =  0.78E-08  absolut break condition
   DEPER  =   0.30     relativ break condition  

   TIME   =   0.40     timestep for ELM

  volume/ion in A,a.u.               =      20.71       139.75
  Fermi-wavevector in a.u.,A,eV,Ry     =   0.959306  1.812825 12.520994  0.920267
  Thomas-Fermi vector in A             =   2.088490
 
 Write flags
   LWAVE  =      T    write WAVECAR
   LCHARG =      T    write CHGCAR
   LVTOT  =      F    write LOCPOT, total local potential
   LVHAR  =      F    write LOCPOT, Hartree potential only
   LELF   =      F    write electronic localiz. function (ELF)
   LORBIT =     10    0 simple, 1 ext, 2 COOP (PROOUT)


 Dipole corrections
   LMONO  =      F    monopole corrections only (constant potential shift)
   LDIPOL =      F    correct potential (dipole corrections)
   IDIPOL =      0    1-x, 2-y, 3-z, 4-all directions 
   EPSILON=  1.0000000 bulk dielectric constant

 Core level calculations are selected ICORELEVEL =  1
 Exchange correlation treatment:
   GGA     =    --    GGA type
   LEXCH   =     2    internal setting for exchange type
   VOSKOWN=      0    Vosko Wilk Nusair interpolation
   LHFCALC =     F    Hartree Fock is set to
   LHFONE  =     F    Hartree Fock one center treatment
   AEXX    =    0.0000 exact exchange contribution

 Linear response parameters
   LEPSILON=     F    determine dielectric tensor
   LRPA    =     F    only Hartree local field effects (RPA)
   LNABLA  =     F    use nabla operator in PAW spheres
   LVEL    =     F    velocity operator in full k-point grid
   LINTERFAST=   F  fast interpolation
   KINTER  =     0    interpolate to denser k-point grid
   CSHIFT  =0.1000    complex shift for real part using Kramers Kronig
   OMEGAMAX=  -1.0    maximum frequency
   DEG_THRESHOLD= 0.2000000E-02 threshold for treating states as degnerate
   RTIME   =    0.100 relaxation time in fs

 Orbital magnetization related:
   ORBITALMAG=     F  switch on orbital magnetization
   LCHIMAG   =     F  perturbation theory with respect to B field
   DQ        =  0.001000  dq finite difference perturbation B field



--------------------------------------------------------------------------------------------------------


 Static calculation
 charge density and potential will be updated during run
 non-spin polarized calculation
 Variant of blocked Davidson
 Davidson routine will perform the subspace rotation
 perform sub-space diagonalisation
    after iterative eigenvector-optimisation
 modified Broyden-mixing scheme, WC =      100.0
 initial mixing is a Kerker type mixing with AMIX =  0.4000 and BMIX =      1.0000
 Hartree-type preconditioning will be used
 using additional bands            7
 reciprocal scheme for non local part
 use partial core corrections
 calculate Harris-corrections to forces 
   (improved forces if not selfconsistent)
 use of overlap-Matrix (Vanderbilt PP)
 Gauss-broadening in eV      SIGMA  =   0.01


--------------------------------------------------------------------------------------------------------


  energy-cutoff  :      500.00
  volume of cell :      248.50
      direct lattice vectors                 reciprocal lattice vectors
     6.290120125  0.000000000  0.000000000     0.158979476 -0.000001969  0.001001495
     0.000077694  6.273890018  0.000000000     0.000000000  0.159390744  0.000003893
    -0.039667571 -0.000153793  6.296915042     0.000000000  0.000000000  0.158807923

  length of vectors
     6.290120125  6.273890018  6.297039986     0.158982630  0.159390744  0.158807923


 
 k-points in units of 2pi/SCALE and weight: Automatic mesh                          
   0.00000000  0.00000000  0.00000000       0.005
   0.02649658 -0.00000033  0.00016692       0.009
   0.05299316 -0.00000066  0.00033383       0.009
   0.07948974 -0.00000098  0.00050075       0.005
   0.00000000  0.02656512  0.00000065       0.009
   0.02649658  0.02656480  0.00016756       0.009
   0.05299316  0.02656447  0.00033448       0.009
   0.07948974  0.02656414  0.00050140       0.009
  -0.05299316  0.02656578 -0.00033318       0.009
  -0.02649658  0.02656545 -0.00016627       0.009
   0.00000000  0.05313025  0.00000130       0.009
   0.02649658  0.05312992  0.00016821       0.009
   0.05299316  0.05312959  0.00033513       0.009
   0.07948974  0.05312926  0.00050205       0.009
  -0.05299316  0.05313090 -0.00033253       0.009
  -0.02649658  0.05313058 -0.00016562       0.009
   0.00000000  0.07969537  0.00000195       0.005
   0.02649658  0.07969504  0.00016886       0.009
   0.05299316  0.07969472  0.00033578       0.009
   0.07948974  0.07969439  0.00050269       0.005
   0.00000000  0.00000000  0.02646799       0.009
   0.02649658 -0.00000033  0.02663490       0.009
   0.05299316 -0.00000066  0.02680182       0.009
   0.07948974 -0.00000098  0.02696873       0.009
  -0.05299316  0.00000066  0.02613416       0.009
  -0.02649658  0.00000033  0.02630107       0.009
   0.00000000  0.02656512  0.02646864       0.009
   0.02649658  0.02656480  0.02663555       0.009
   0.05299316  0.02656447  0.02680247       0.009
   0.07948974  0.02656414  0.02696938       0.009
  -0.05299316  0.02656578  0.02613480       0.009
  -0.02649658  0.02656545  0.02630172       0.009
   0.00000000  0.05313025  0.02646928       0.009
   0.02649658  0.05312992  0.02663620       0.009
   0.05299316  0.05312959  0.02680312       0.009
   0.07948974  0.05312926  0.02697003       0.009
  -0.05299316  0.05313090  0.02613545       0.009
  -0.02649658  0.05313058  0.02630237       0.009
   0.00000000  0.07969537  0.02646993       0.009
   0.02649658  0.07969504  0.02663685       0.009
   0.05299316  0.07969472  0.02680377       0.009
   0.07948974  0.07969439  0.02697068       0.009
  -0.05299316  0.07969603  0.02613610       0.009
  -0.02649658  0.07969570  0.02630302       0.009
   0.00000000 -0.05313025  0.02646669       0.009
   0.02649658 -0.05313058  0.02663361       0.009
   0.05299316 -0.05313090  0.02680052       0.009
   0.07948974 -0.05313123  0.02696744       0.009
  -0.05299316 -0.05312959  0.02613286       0.009
  -0.02649658 -0.05312992  0.02629977       0.009
   0.00000000 -0.02656512  0.02646734       0.009
   0.02649658 -0.02656545  0.02663425       0.009
   0.05299316 -0.02656578  0.02680117       0.009
   0.07948974 -0.02656611  0.02696809       0.009
  -0.05299316 -0.02656447  0.02613351       0.009
  -0.02649658 -0.02656480  0.02630042       0.009
   0.00000000  0.00000000  0.05293597       0.009
   0.02649658 -0.00000033  0.05310289       0.009
   0.05299316 -0.00000066  0.05326981       0.009
   0.07948974 -0.00000098  0.05343672       0.009
  -0.05299316  0.00000066  0.05260214       0.009
  -0.02649658  0.00000033  0.05276906       0.009
   0.00000000  0.02656512  0.05293662       0.009
   0.02649658  0.02656480  0.05310354       0.009
   0.05299316  0.02656447  0.05327045       0.009
   0.07948974  0.02656414  0.05343737       0.009
  -0.05299316  0.02656578  0.05260279       0.009
  -0.02649658  0.02656545  0.05276971       0.009
   0.00000000  0.05313025  0.05293727       0.009
   0.02649658  0.05312992  0.05310419       0.009
   0.05299316  0.05312959  0.05327110       0.009
   0.07948974  0.05312926  0.05343802       0.009
  -0.05299316  0.05313090  0.05260344       0.009
  -0.02649658  0.05313058  0.05277036       0.009
   0.00000000  0.07969537  0.05293792       0.009
   0.02649658  0.07969504  0.05310484       0.009
   0.05299316  0.07969472  0.05327175       0.009
   0.07948974  0.07969439  0.05343867       0.009
  -0.05299316  0.07969603  0.05260409       0.009
  -0.02649658  0.07969570  0.05277100       0.009
   0.00000000 -0.05313025  0.05293468       0.009
   0.02649658 -0.05313058  0.05310159       0.009
   0.05299316 -0.05313090  0.05326851       0.009
   0.07948974 -0.05313123  0.05343542       0.009
  -0.05299316 -0.05312959  0.05260085       0.009
  -0.02649658 -0.05312992  0.05276776       0.009
   0.00000000 -0.02656512  0.05293533       0.009
   0.02649658 -0.02656545  0.05310224       0.009
   0.05299316 -0.02656578  0.05326916       0.009
   0.07948974 -0.02656611  0.05343607       0.009
  -0.05299316 -0.02656447  0.05260149       0.009
  -0.02649658 -0.02656480  0.05276841       0.009
   0.00000000  0.00000000  0.07940396       0.005
   0.02649658 -0.00000033  0.07957088       0.009
   0.05299316 -0.00000066  0.07973779       0.009
   0.07948974 -0.00000098  0.07990471       0.005
   0.00000000  0.02656512  0.07940461       0.009
   0.02649658  0.02656480  0.07957153       0.009
   0.05299316  0.02656447  0.07973844       0.009
   0.07948974  0.02656414  0.07990536       0.009
  -0.05299316  0.02656578  0.07907078       0.009
  -0.02649658  0.02656545  0.07923769       0.009
   0.00000000  0.05313025  0.07940526       0.009
   0.02649658  0.05312992  0.07957218       0.009
   0.05299316  0.05312959  0.07973909       0.009
   0.07948974  0.05312926  0.07990601       0.009
  -0.05299316  0.05313090  0.07907143       0.009
  -0.02649658  0.05313058  0.07923834       0.009
   0.00000000  0.07969537  0.07940591       0.005
   0.02649658  0.07969504  0.07957282       0.009
   0.05299316  0.07969472  0.07973974       0.009
   0.07948974  0.07969439  0.07990666       0.005
 
 k-points in reciprocal lattice and weights: Automatic mesh                          
   0.00000000  0.00000000  0.00000000       0.005
   0.16666667  0.00000000  0.00000000       0.009
   0.33333333  0.00000000  0.00000000       0.009
   0.50000000  0.00000000  0.00000000       0.005
   0.00000000  0.16666667  0.00000000       0.009
   0.16666667  0.16666667  0.00000000       0.009
   0.33333333  0.16666667  0.00000000       0.009
   0.50000000  0.16666667  0.00000000       0.009
  -0.33333333  0.16666667 -0.00000000       0.009
  -0.16666667  0.16666667 -0.00000000       0.009
   0.00000000  0.33333333  0.00000000       0.009
   0.16666667  0.33333333  0.00000000       0.009
   0.33333333  0.33333333  0.00000000       0.009
   0.50000000  0.33333333  0.00000000       0.009
  -0.33333333  0.33333333  0.00000000       0.009
  -0.16666667  0.33333333 -0.00000000       0.009
   0.00000000  0.50000000  0.00000000       0.005
   0.16666667  0.50000000  0.00000000       0.009
   0.33333333  0.50000000  0.00000000       0.009
   0.50000000  0.50000000  0.00000000       0.005
   0.00000000  0.00000000  0.16666667       0.009
   0.16666667  0.00000000  0.16666667       0.009
   0.33333333  0.00000000  0.16666667       0.009
   0.50000000  0.00000000  0.16666667       0.009
  -0.33333333 -0.00000000  0.16666667       0.009
  -0.16666667 -0.00000000  0.16666667       0.009
   0.00000000  0.16666667  0.16666667       0.009
   0.16666667  0.16666667  0.16666667       0.009
   0.33333333  0.16666667  0.16666667       0.009
   0.50000000  0.16666667  0.16666667       0.009
  -0.33333333  0.16666667  0.16666667       0.009
  -0.16666667  0.16666667  0.16666667       0.009
   0.00000000  0.33333333  0.16666667       0.009
   0.16666667  0.33333333  0.16666667       0.009
   0.33333333  0.33333333  0.16666667       0.009
   0.50000000  0.33333333  0.16666667       0.009
  -0.33333333  0.33333333  0.16666667       0.009
  -0.16666667  0.33333333  0.16666667       0.009
   0.00000000  0.50000000  0.16666667       0.009
   0.16666667  0.50000000  0.16666667       0.009
   0.33333333  0.50000000  0.16666667       0.009
   0.50000000  0.50000000  0.16666667       0.009
  -0.33333333  0.50000000  0.16666667       0.009
  -0.16666667  0.50000000  0.16666667       0.009
   0.00000000 -0.33333333  0.16666667       0.009
   0.16666667 -0.33333333  0.16666667       0.009
   0.33333333 -0.33333333  0.16666667       0.009
   0.50000000 -0.33333333  0.16666667       0.009
  -0.33333333 -0.33333333  0.16666667       0.009
  -0.16666667 -0.33333333  0.16666667       0.009
   0.00000000 -0.16666667  0.16666667       0.009
   0.16666667 -0.16666667  0.16666667       0.009
   0.33333333 -0.16666667  0.16666667       0.009
   0.50000000 -0.16666667  0.16666667       0.009
  -0.33333333 -0.16666667  0.16666667       0.009
  -0.16666667 -0.16666667  0.16666667       0.009
   0.00000000  0.00000000  0.33333333       0.009
   0.16666667  0.00000000  0.33333333       0.009
   0.33333333  0.00000000  0.33333333       0.009
   0.50000000  0.00000000  0.33333333       0.009
  -0.33333333 -0.00000000  0.33333333       0.009
  -0.16666667 -0.00000000  0.33333333       0.009
   0.00000000  0.16666667  0.33333333       0.009
   0.16666667  0.16666667  0.33333333       0.009
   0.33333333  0.16666667  0.33333333       0.009
   0.50000000  0.16666667  0.33333333       0.009
  -0.33333333  0.16666667  0.33333333       0.009
  -0.16666667  0.16666667  0.33333333       0.009
   0.00000000  0.33333333  0.33333333       0.009
   0.16666667  0.33333333  0.33333333       0.009
   0.33333333  0.33333333  0.33333333       0.009
   0.50000000  0.33333333  0.33333333       0.009
  -0.33333333  0.33333333  0.33333333       0.009
  -0.16666667  0.33333333  0.33333333       0.009
   0.00000000  0.50000000  0.33333333       0.009
   0.16666667  0.50000000  0.33333333       0.009
   0.33333333  0.50000000  0.33333333       0.009
   0.50000000  0.50000000  0.33333333       0.009
  -0.33333333  0.50000000  0.33333333       0.009
  -0.16666667  0.50000000  0.33333333       0.009
   0.00000000 -0.33333333  0.33333333       0.009
   0.16666667 -0.33333333  0.33333333       0.009
   0.33333333 -0.33333333  0.33333333       0.009
   0.50000000 -0.33333333  0.33333333       0.009
  -0.33333333 -0.33333333  0.33333333       0.009
  -0.16666667 -0.33333333  0.33333333       0.009
   0.00000000 -0.16666667  0.33333333       0.009
   0.16666667 -0.16666667  0.33333333       0.009
   0.33333333 -0.16666667  0.33333333       0.009
   0.50000000 -0.16666667  0.33333333       0.009
  -0.33333333 -0.16666667  0.33333333       0.009
  -0.16666667 -0.16666667  0.33333333       0.009
   0.00000000  0.00000000  0.50000000       0.005
   0.16666667  0.00000000  0.50000000       0.009
   0.33333333  0.00000000  0.50000000       0.009
   0.50000000  0.00000000  0.50000000       0.005
   0.00000000  0.16666667  0.50000000       0.009
   0.16666667  0.16666667  0.50000000       0.009
   0.33333333  0.16666667  0.50000000       0.009
   0.50000000  0.16666667  0.50000000       0.009
  -0.33333333  0.16666667  0.50000000       0.009
  -0.16666667  0.16666667  0.50000000       0.009
   0.00000000  0.33333333  0.50000000       0.009
   0.16666667  0.33333333  0.50000000       0.009
   0.33333333  0.33333333  0.50000000       0.009
   0.50000000  0.33333333  0.50000000       0.009
  -0.33333333  0.33333333  0.50000000       0.009
  -0.16666667  0.33333333  0.50000000       0.009
   0.00000000  0.50000000  0.50000000       0.005
   0.16666667  0.50000000  0.50000000       0.009
   0.33333333  0.50000000  0.50000000       0.009
   0.50000000  0.50000000  0.50000000       0.005
 
 position of ions in fractional coordinates (direct lattice) 
   0.90278000  0.99996299  0.99633503
   0.13658300  0.99982703  0.02487800
   0.86450797  0.99971300  0.82573497
   0.83779401  0.14375700  0.07192800
   0.83758902  0.85651600  0.07238300
   0.20758800  0.13427401  0.95813400
   0.20739301  0.86506301  0.95849699
   0.18201301  0.00000300  0.18535300
   0.47617099  0.50003099  0.47564700
   0.42680299  0.49988300  0.97260898
   0.43586001  0.00004500  0.50654203
   0.96289802  0.50022697  0.44774699
 
 position of ions in cartesian coordinates  (Angst):
   5.63915012  6.27350457  6.27383704
   0.85821431  6.27280098  0.15665466
   5.40518177  6.27196244  5.19958297
   5.26698290  0.90190455  0.45292452
   5.26573087  5.37367608  0.45578961
   1.26775705  0.84227299  6.03328837
   1.26657288  5.42716279  6.03557410
   1.13753116 -0.00000968  1.16715207
   2.97634380  3.13706631  2.99510876
   2.64609990  3.13606136  6.12443614
   2.72151852  0.00020442  3.18965211
   6.03902202  3.13830016  2.81942477
 


--------------------------------------------------------------------------------------------------------


 k-point  1 :   0.0000 0.0000 0.0000  plane waves:    6329
 k-point  2 :   0.1667 0.0000 0.0000  plane waves:    6328
 k-point  3 :   0.3333 0.0000 0.0000  plane waves:    6330
 k-point  4 :   0.5000 0.0000 0.0000  plane waves:    6342
 k-point  5 :   0.0000 0.1667 0.0000  plane waves:    6328
 k-point  6 :   0.1667 0.1667 0.0000  plane waves:    6317
 k-point  7 :   0.3333 0.1667 0.0000  plane waves:    6315
 k-point  8 :   0.5000 0.1667 0.0000  plane waves:    6314
 k-point  9 :  -0.3333 0.1667-0.0000  plane waves:    6315
 k-point 10 :  -0.1667 0.1667-0.0000  plane waves:    6317
 k-point 11 :   0.0000 0.3333 0.0000  plane waves:    6327
 k-point 12 :   0.1667 0.3333 0.0000  plane waves:    6315
 k-point 13 :   0.3333 0.3333 0.0000  plane waves:    6301
 k-point 14 :   0.5000 0.3333 0.0000  plane waves:    6298
 k-point 15 :  -0.3333 0.3333 0.0000  plane waves:    6301
 k-point 16 :  -0.1667 0.3333-0.0000  plane waves:    6315
 k-point 17 :   0.0000 0.5000 0.0000  plane waves:    6358
 k-point 18 :   0.1667 0.5000 0.0000  plane waves:    6316
 k-point 19 :   0.3333 0.5000 0.0000  plane waves:    6298
 k-point 20 :   0.5000 0.5000 0.0000  plane waves:    6272
 k-point 21 :   0.0000 0.0000 0.1667  plane waves:    6326
 k-point 22 :   0.1667 0.0000 0.1667  plane waves:    6318
 k-point 23 :   0.3333 0.0000 0.1667  plane waves:    6320
 k-point 24 :   0.5000 0.0000 0.1667  plane waves:    6316
 k-point 25 :  -0.3333-0.0000 0.1667  plane waves:    6311
 k-point 26 :  -0.1667-0.0000 0.1667  plane waves:    6308
 k-point 27 :   0.0000 0.1667 0.1667  plane waves:    6315
 k-point 28 :   0.1667 0.1667 0.1667  plane waves:    6321
 k-point 29 :   0.3333 0.1667 0.1667  plane waves:    6318
 k-point 30 :   0.5000 0.1667 0.1667  plane waves:    6300
 k-point 31 :  -0.3333 0.1667 0.1667  plane waves:    6317
 k-point 32 :  -0.1667 0.1667 0.1667  plane waves:    6331
 k-point 33 :   0.0000 0.3333 0.1667  plane waves:    6315
 k-point 34 :   0.1667 0.3333 0.1667  plane waves:    6311
 k-point 35 :   0.3333 0.3333 0.1667  plane waves:    6304
 k-point 36 :   0.5000 0.3333 0.1667  plane waves:    6304
 k-point 37 :  -0.3333 0.3333 0.1667  plane waves:    6307
 k-point 38 :  -0.1667 0.3333 0.1667  plane waves:    6311
 k-point 39 :   0.0000 0.5000 0.1667  plane waves:    6308
 k-point 40 :   0.1667 0.5000 0.1667  plane waves:    6305
 k-point 41 :   0.3333 0.5000 0.1667  plane waves:    6316
 k-point 42 :   0.5000 0.5000 0.1667  plane waves:    6300
 k-point 43 :  -0.3333 0.5000 0.1667  plane waves:    6297
 k-point 44 :  -0.1667 0.5000 0.1667  plane waves:    6306
 k-point 45 :   0.0000-0.3333 0.1667  plane waves:    6315
 k-point 46 :   0.1667-0.3333 0.1667  plane waves:    6311
 k-point 47 :   0.3333-0.3333 0.1667  plane waves:    6304
 k-point 48 :   0.5000-0.3333 0.1667  plane waves:    6304
 k-point 49 :  -0.3333-0.3333 0.1667  plane waves:    6306
 k-point 50 :  -0.1667-0.3333 0.1667  plane waves:    6311
 k-point 51 :   0.0000-0.1667 0.1667  plane waves:    6314
 k-point 52 :   0.1667-0.1667 0.1667  plane waves:    6321
 k-point 53 :   0.3333-0.1667 0.1667  plane waves:    6318
 k-point 54 :   0.5000-0.1667 0.1667  plane waves:    6300
 k-point 55 :  -0.3333-0.1667 0.1667  plane waves:    6317
 k-point 56 :  -0.1667-0.1667 0.1667  plane waves:    6331
 k-point 57 :   0.0000 0.0000 0.3333  plane waves:    6323
 k-point 58 :   0.1667 0.0000 0.3333  plane waves:    6319
 k-point 59 :   0.3333 0.0000 0.3333  plane waves:    6300
 k-point 60 :   0.5000 0.0000 0.3333  plane waves:    6301
 k-point 61 :  -0.3333-0.0000 0.3333  plane waves:    6306
 k-point 62 :  -0.1667-0.0000 0.3333  plane waves:    6310
 k-point 63 :   0.0000 0.1667 0.3333  plane waves:    6313
 k-point 64 :   0.1667 0.1667 0.3333  plane waves:    6320
 k-point 65 :   0.3333 0.1667 0.3333  plane waves:    6309
 k-point 66 :   0.5000 0.1667 0.3333  plane waves:    6307
 k-point 67 :  -0.3333 0.1667 0.3333  plane waves:    6303
 k-point 68 :  -0.1667 0.1667 0.3333  plane waves:    6322
 k-point 69 :   0.0000 0.3333 0.3333  plane waves:    6301
 k-point 70 :   0.1667 0.3333 0.3333  plane waves:    6305
 k-point 71 :   0.3333 0.3333 0.3333  plane waves:    6316
 k-point 72 :   0.5000 0.3333 0.3333  plane waves:    6296
 k-point 73 :  -0.3333 0.3333 0.3333  plane waves:    6297
 k-point 74 :  -0.1667 0.3333 0.3333  plane waves:    6298
 k-point 75 :   0.0000 0.5000 0.3333  plane waves:    6298
 k-point 76 :   0.1667 0.5000 0.3333  plane waves:    6318
 k-point 77 :   0.3333 0.5000 0.3333  plane waves:    6300
 k-point 78 :   0.5000 0.5000 0.3333  plane waves:    6278
 k-point 79 :  -0.3333 0.5000 0.3333  plane waves:    6298
 k-point 80 :  -0.1667 0.5000 0.3333  plane waves:    6300
 k-point 81 :   0.0000-0.3333 0.3333  plane waves:    6301
 k-point 82 :   0.1667-0.3333 0.3333  plane waves:    6305
 k-point 83 :   0.3333-0.3333 0.3333  plane waves:    6316
 k-point 84 :   0.5000-0.3333 0.3333  plane waves:    6296
 k-point 85 :  -0.3333-0.3333 0.3333  plane waves:    6297
 k-point 86 :  -0.1667-0.3333 0.3333  plane waves:    6299
 k-point 87 :   0.0000-0.1667 0.3333  plane waves:    6313
 k-point 88 :   0.1667-0.1667 0.3333  plane waves:    6320
 k-point 89 :   0.3333-0.1667 0.3333  plane waves:    6309
 k-point 90 :   0.5000-0.1667 0.3333  plane waves:    6307
 k-point 91 :  -0.3333-0.1667 0.3333  plane waves:    6303
 k-point 92 :  -0.1667-0.1667 0.3333  plane waves:    6321
 k-point 93 :   0.0000 0.0000 0.5000  plane waves:    6334
 k-point 94 :   0.1667 0.0000 0.5000  plane waves:    6312
 k-point 95 :   0.3333 0.0000 0.5000  plane waves:    6298
 k-point 96 :   0.5000 0.0000 0.5000  plane waves:    6272
 k-point 97 :   0.0000 0.1667 0.5000  plane waves:    6310
 k-point 98 :   0.1667 0.1667 0.5000  plane waves:    6306
 k-point 99 :   0.3333 0.1667 0.5000  plane waves:    6302
 k-point ** :   0.5000 0.1667 0.5000  plane waves:    6304
 k-point ** :  -0.3333 0.1667 0.5000  plane waves:    6302
 k-point ** :  -0.1667 0.1667 0.5000  plane waves:    6305
 k-point ** :   0.0000 0.3333 0.5000  plane waves:    6298
 k-point ** :   0.1667 0.3333 0.5000  plane waves:    6304
 k-point ** :   0.3333 0.3333 0.5000  plane waves:    6291
 k-point ** :   0.5000 0.3333 0.5000  plane waves:    6270
 k-point ** :  -0.3333 0.3333 0.5000  plane waves:    6293
 k-point ** :  -0.1667 0.3333 0.5000  plane waves:    6304
 k-point ** :   0.0000 0.5000 0.5000  plane waves:    6276
 k-point ** :   0.1667 0.5000 0.5000  plane waves:    6300
 k-point ** :   0.3333 0.5000 0.5000  plane waves:    6282
 k-point ** :   0.5000 0.5000 0.5000  plane waves:    6272

 maximum and minimum number of plane-waves per node :      6358     6270

 maximum number of plane-waves:      6358
 maximum index in each direction: 
   IXMAX=   11   IYMAX=   11   IZMAX=   11
   IXMIN=  -11   IYMIN=  -11   IZMIN=  -11

 NGX is ok and might be reduce to  46
 NGY is ok and might be reduce to  46
 NGZ is ok and might be reduce to  46

 serial   3D FFT for wavefunctions
 parallel 3D FFT for charge:
    minimum data exchange during FFTs selected (reduces bandwidth)


 total amount of memory used by VASP on root node   608305. kBytes
========================================================================

   base      :      30000. kBytes
   nonl-proj :     514091. kBytes
   fftplans  :       4240. kBytes
   grid      :      13455. kBytes
   one-center:        186. kBytes
   wavefun   :      46333. kBytes
 
     INWAV:  cpu time    0.0000: real time    0.0001
 Broyden mixing: mesh for mixing (old mesh)
   NGX = 23   NGY = 23   NGZ = 23
  (NGX  = 96   NGY  = 96   NGZ  = 96)
  gives a total of  12167 points

 initial charge density was supplied:
 charge density of overlapping atoms calculated
 number of electron      50.0000000 magnetization 
 keeping initial charge density in first step


--------------------------------------------------------------------------------------------------------


 Maximum index for augmentation-charges         3139 (set IRDMAX)


--------------------------------------------------------------------------------------------------------


 First call to EWALD:  gamma=   0.282
 Maximum number of real-space cells 3x 3x 3
 Maximum number of reciprocal cells 3x 3x 3

 FEWALD executed in parallel
    FEWALD:  cpu time    0.0040: real time    0.0018


----------------------------------------- Iteration    1(   1)  ---------------------------------------


    POTLOK:  cpu time    8.7400: real time   16.2585
    SETDIJ:  cpu time    7.1280: real time   10.1769
     EDDAV:  cpu time   48.7240: real time   70.9313
       DOS:  cpu time    0.2240: real time    0.2379
    --------------------------------------------
      LOOP:  cpu time   64.8200: real time   98.6060

 eigenvalue-minimisations  :  7168
 total energy-change (2. order) : 0.3609041E+03  (-0.1998855E+04)
 number of electron      50.0000000 magnetization 
 augmentation part       50.0000000 magnetization 

 Free energy of the ion-electron system (eV)
  ---------------------------------------------------
  alpha Z        PSCENC =        42.82368006
  Ewald energy   TEWEN  =     -1941.32201603
  -Hartree energ DENC   =     -1012.62416075
  -exchange      EXHF   =         0.00000000
  -V(xc)+E(xc)   XCENC  =        47.90485479
  PAW double counting   =      1802.06435323    -1715.25479705
  entropy T*S    EENTRO =        -0.00010547
  eigenvalues    EBANDS =        33.34593047
  atomic energy  EATOM  =      3103.96639798
  Solvation  Ediel_sol  =         0.00000000
  ---------------------------------------------------
  free energy    TOTEN  =       360.90413723 eV

  energy without entropy =      360.90424270  energy(sigma->0) =      360.90418997


--------------------------------------------------------------------------------------------------------




----------------------------------------- Iteration    1(   2)  ---------------------------------------


     EDDAV:  cpu time   64.1960: real time   43.1799
       DOS:  cpu time    0.0000: real time    0.0013
    --------------------------------------------
      LOOP:  cpu time   64.2000: real time   43.4836

 eigenvalue-minimisations  :  8800
 total energy-change (2. order) :-0.3743398E+03  (-0.3591443E+03)
 number of electron      50.0000000 magnetization 
 augmentation part       50.0000000 magnetization 

 Free energy of the ion-electron system (eV)
  ---------------------------------------------------
  alpha Z        PSCENC =        42.82368006
  Ewald energy   TEWEN  =     -1941.32201603
  -Hartree energ DENC   =     -1012.62416075
  -exchange      EXHF   =         0.00000000
  -V(xc)+E(xc)   XCENC  =        47.90485479
  PAW double counting   =      1802.06435323    -1715.25479705
  entropy T*S    EENTRO =        -0.00005224
  eigenvalues    EBANDS =      -340.99387698
  atomic energy  EATOM  =      3103.96639798
  Solvation  Ediel_sol  =         0.00000000
  ---------------------------------------------------
  free energy    TOTEN  =       -13.43561699 eV

  energy without entropy =      -13.43556475  energy(sigma->0) =      -13.43559087


--------------------------------------------------------------------------------------------------------




----------------------------------------- Iteration    1(   3)  ---------------------------------------


     EDDAV:  cpu time   75.9280: real time   57.5276
       DOS:  cpu time    0.0040: real time    0.0005
    --------------------------------------------
      LOOP:  cpu time   75.9320: real time   57.5285

 eigenvalue-minimisations  :  8888
 total energy-change (2. order) :-0.4311260E+02  (-0.4280217E+02)
 number of electron      50.0000000 magnetization 
 augmentation part       50.0000000 magnetization 

 Free energy of the ion-electron system (eV)
  ---------------------------------------------------
  alpha Z        PSCENC =        42.82368006
  Ewald energy   TEWEN  =     -1941.32201603
  -Hartree energ DENC   =     -1012.62416075
  -exchange      EXHF   =         0.00000000
  -V(xc)+E(xc)   XCENC  =        47.90485479
  PAW double counting   =      1802.06435323    -1715.25479705
  entropy T*S    EENTRO =        -0.00000000
  eigenvalues    EBANDS =      -384.10652858
  atomic energy  EATOM  =      3103.96639798
  Solvation  Ediel_sol  =         0.00000000
  ---------------------------------------------------
  free energy    TOTEN  =       -56.54821634 eV

  energy without entropy =      -56.54821634  energy(sigma->0) =      -56.54821634


--------------------------------------------------------------------------------------------------------




----------------------------------------- Iteration    1(   4)  ---------------------------------------


     EDDAV:  cpu time   52.5400: real time   35.2699
       DOS:  cpu time    0.0000: real time    0.0005
    --------------------------------------------
      LOOP:  cpu time   52.5400: real time   35.2708

 eigenvalue-minimisations  : 10864
 total energy-change (2. order) :-0.1946608E+01  (-0.1942470E+01)
 number of electron      50.0000000 magnetization 
 augmentation part       50.0000000 magnetization 

 Free energy of the ion-electron system (eV)
  ---------------------------------------------------
  alpha Z        PSCENC =        42.82368006
  Ewald energy   TEWEN  =     -1941.32201603
  -Hartree energ DENC   =     -1012.62416075
  -exchange      EXHF   =         0.00000000
  -V(xc)+E(xc)   XCENC  =        47.90485479
  PAW double counting   =      1802.06435323    -1715.25479705
  entropy T*S    EENTRO =        -0.00000000
  eigenvalues    EBANDS =      -386.05313688
  atomic energy  EATOM  =      3103.96639798
  Solvation  Ediel_sol  =         0.00000000
  ---------------------------------------------------
  free energy    TOTEN  =       -58.49482464 eV

  energy without entropy =      -58.49482464  energy(sigma->0) =      -58.49482464


--------------------------------------------------------------------------------------------------------




----------------------------------------- Iteration    1(   5)  ---------------------------------------


     EDDAV:  cpu time   57.9520: real time   37.3688
       DOS:  cpu time    0.0000: real time    0.0006
    CHARGE:  cpu time    4.0720: real time   14.4852
    MIXING:  cpu time    0.0640: real time    5.5406
    --------------------------------------------
      LOOP:  cpu time   62.0920: real time   57.3959

 eigenvalue-minimisations  :  9504
 total energy-change (2. order) :-0.4649909E-01  (-0.4648217E-01)
 number of electron      49.9999995 magnetization 
 augmentation part        0.9205288 magnetization 

 Broyden mixing:
  rms(total) = 0.10090E+01    rms(broyden)= 0.10087E+01
  rms(prec ) = 0.17739E+01
  weight for this iteration     100.00

 Free energy of the ion-electron system (eV)
  ---------------------------------------------------
  alpha Z        PSCENC =        42.82368006
  Ewald energy   TEWEN  =     -1941.32201603
  -Hartree energ DENC   =     -1012.62416075
  -exchange      EXHF   =         0.00000000
  -V(xc)+E(xc)   XCENC  =        47.90485479
  PAW double counting   =      1802.06435323    -1715.25479705
  entropy T*S    EENTRO =        -0.00000000
  eigenvalues    EBANDS =      -386.09963597
  atomic energy  EATOM  =      3103.96639798
  Solvation  Ediel_sol  =         0.00000000
  ---------------------------------------------------
  free energy    TOTEN  =       -58.54132373 eV

  energy without entropy =      -58.54132373  energy(sigma->0) =      -58.54132373


--------------------------------------------------------------------------------------------------------




----------------------------------------- Iteration    1(   6)  ---------------------------------------


    POTLOK:  cpu time    0.0400: real time    0.0429
    SETDIJ:  cpu time    0.0120: real time    0.0081
     EDDAV:  cpu time   46.9320: real time   28.6665
       DOS:  cpu time    0.0000: real time    0.0005
    CHARGE:  cpu time    2.1840: real time    3.0346
    MIXING:  cpu time    0.2520: real time    3.4863
    --------------------------------------------
      LOOP:  cpu time   49.4200: real time   35.2396

 eigenvalue-minimisations  :  9080
 total energy-change (2. order) : 0.3219832E+01  (-0.7059493E+00)
 number of electron      49.9999995 magnetization 
 augmentation part        0.9415718 magnetization 

 Broyden mixing:
  rms(total) = 0.45224E+00    rms(broyden)= 0.45220E+00
  rms(prec ) = 0.72271E+00
  weight for this iteration     100.00

 eigenvalues of (default mixing * dielectric matrix)
  average eigenvalue GAMMA=   1.3859
  1.3859

 Free energy of the ion-electron system (eV)
  ---------------------------------------------------
  alpha Z        PSCENC =        42.82368006
  Ewald energy   TEWEN  =     -1941.32201603
  -Hartree energ DENC   =     -1036.06599114
  -exchange      EXHF   =         0.00000000
  -V(xc)+E(xc)   XCENC  =        49.92004391
  PAW double counting   =      1867.57657346    -1780.90088769
  entropy T*S    EENTRO =        -0.00000000
  eigenvalues    EBANDS =      -361.31929243
  atomic energy  EATOM  =      3103.96639798
  Solvation  Ediel_sol  =         0.00000000
  ---------------------------------------------------
  free energy    TOTEN  =       -55.32149186 eV

  energy without entropy =      -55.32149186  energy(sigma->0) =      -55.32149186


--------------------------------------------------------------------------------------------------------




----------------------------------------- Iteration    1(   7)  ---------------------------------------


    POTLOK:  cpu time    0.8080: real time    0.8082
    SETDIJ:  cpu time    0.0120: real time    0.0093
     EDDAV:  cpu time   40.0720: real time   22.2942
       DOS:  cpu time    0.0040: real time    0.0004
    CHARGE:  cpu time    0.8880: real time    0.6238
    MIXING:  cpu time    0.0040: real time    0.0023
    --------------------------------------------
      LOOP:  cpu time   41.7880: real time   23.7390

 eigenvalue-minimisations  :  9528
 total energy-change (2. order) : 0.4183493E+00  (-0.1606111E+00)
 number of electron      49.9999995 magnetization 
 augmentation part        0.9462452 magnetization 

 Broyden mixing:
  rms(total) = 0.21484E+00    rms(broyden)= 0.21479E+00
  rms(prec ) = 0.30845E+00
  weight for this iteration     100.00

 eigenvalues of (default mixing * dielectric matrix)
  average eigenvalue GAMMA=   1.8741
  1.3768  2.3714

 Free energy of the ion-electron system (eV)
  ---------------------------------------------------
  alpha Z        PSCENC =        42.82368006
  Ewald energy   TEWEN  =     -1941.32201603
  -Hartree energ DENC   =     -1046.23758036
  -exchange      EXHF   =         0.00000000
  -V(xc)+E(xc)   XCENC  =        51.12344747
  PAW double counting   =      1910.30751486    -1823.62622523
  entropy T*S    EENTRO =        -0.00000000
  eigenvalues    EBANDS =      -351.93836133
  atomic energy  EATOM  =      3103.96639798
  Solvation  Ediel_sol  =         0.00000000
  ---------------------------------------------------
  free energy    TOTEN  =       -54.90314257 eV

  energy without entropy =      -54.90314257  energy(sigma->0) =      -54.90314257


--------------------------------------------------------------------------------------------------------




----------------------------------------- Iteration    1(   8)  ---------------------------------------


    POTLOK:  cpu time    0.0520: real time    0.0253
    SETDIJ:  cpu time    0.0080: real time    0.0050
     EDDAV:  cpu time   40.6600: real time   21.8835
       DOS:  cpu time    0.0040: real time    0.0005
    CHARGE:  cpu time    2.6360: real time    1.9999
    MIXING:  cpu time    0.0040: real time    0.0037
    --------------------------------------------
      LOOP:  cpu time   43.3640: real time   23.9186

 eigenvalue-minimisations  :  9496
 total energy-change (2. order) : 0.6445232E-01  (-0.2833493E-01)
 number of electron      49.9999995 magnetization 
 augmentation part        0.9423605 magnetization 

 Broyden mixing:
  rms(total) = 0.46479E-01    rms(broyden)= 0.46469E-01
  rms(prec ) = 0.84252E-01
  weight for this iteration     100.00

 eigenvalues of (default mixing * dielectric matrix)
  average eigenvalue GAMMA=   1.6562
  1.3511  1.3511  2.2662

 Free energy of the ion-electron system (eV)
  ---------------------------------------------------
  alpha Z        PSCENC =        42.82368006
  Ewald energy   TEWEN  =     -1941.32201603
  -Hartree energ DENC   =     -1048.06684175
  -exchange      EXHF   =         0.00000000
  -V(xc)+E(xc)   XCENC  =        51.65753356
  PAW double counting   =      1932.36853787    -1845.76749300
  entropy T*S    EENTRO =        -0.00000000
  eigenvalues    EBANDS =      -350.49848892
  atomic energy  EATOM  =      3103.96639798
  Solvation  Ediel_sol  =         0.00000000
  ---------------------------------------------------
  free energy    TOTEN  =       -54.83869024 eV

  energy without entropy =      -54.83869024  energy(sigma->0) =      -54.83869024


--------------------------------------------------------------------------------------------------------




----------------------------------------- Iteration    1(   9)  ---------------------------------------


    POTLOK:  cpu time    1.3640: real time    1.3655
    SETDIJ:  cpu time    0.0120: real time    0.0082
     EDDAV:  cpu time   40.4640: real time   22.3454
       DOS:  cpu time    0.0040: real time    0.0005
    CHARGE:  cpu time    0.9720: real time    0.6294
    MIXING:  cpu time    0.0040: real time    0.0024
    --------------------------------------------
      LOOP:  cpu time   43.1440: real time   26.2442

 eigenvalue-minimisations  :  9760
 total energy-change (2. order) : 0.4504481E-02  (-0.7580449E-02)
 number of electron      49.9999995 magnetization 
 augmentation part        0.9407228 magnetization 

 Broyden mixing:
  rms(total) = 0.23679E-01    rms(broyden)= 0.23665E-01
  rms(prec ) = 0.37248E-01
  weight for this iteration     100.00

 eigenvalues of (default mixing * dielectric matrix)
  average eigenvalue GAMMA=   1.6093
  2.3394  1.8729  1.1124  1.1124

 Free energy of the ion-electron system (eV)
  ---------------------------------------------------
  alpha Z        PSCENC =        42.82368006
  Ewald energy   TEWEN  =     -1941.32201603
  -Hartree energ DENC   =     -1050.02269194
  -exchange      EXHF   =         0.00000000
  -V(xc)+E(xc)   XCENC  =        51.78304989
  PAW double counting   =      1936.32210043    -1849.78774933
  entropy T*S    EENTRO =        -0.00000000
  eigenvalues    EBANDS =      -348.59695683
  atomic energy  EATOM  =      3103.96639798
  Solvation  Ediel_sol  =         0.00000000
  ---------------------------------------------------
  free energy    TOTEN  =       -54.83418576 eV

  energy without entropy =      -54.83418576  energy(sigma->0) =      -54.83418576


--------------------------------------------------------------------------------------------------------




----------------------------------------- Iteration    1(  10)  ---------------------------------------


    POTLOK:  cpu time    0.0480: real time    0.0252
    SETDIJ:  cpu time    0.0120: real time    0.0049
     EDDAV:  cpu time   38.7880: real time   21.0545
       DOS:  cpu time    0.0000: real time    0.0006
    CHARGE:  cpu time    0.8560: real time    0.6221
    MIXING:  cpu time    0.0080: real time    0.0029
    --------------------------------------------
      LOOP:  cpu time   39.7160: real time   21.7107

 eigenvalue-minimisations  :  8624
 total energy-change (2. order) : 0.4098202E-03  (-0.8011447E-03)
 number of electron      49.9999995 magnetization 
 augmentation part        0.9378919 magnetization 

 Broyden mixing:
  rms(total) = 0.85178E-02    rms(broyden)= 0.85164E-02
  rms(prec ) = 0.14008E-01
  weight for this iteration     100.00

 eigenvalues of (default mixing * dielectric matrix)
  average eigenvalue GAMMA=   1.5156
  2.4341  1.4610  1.2121  1.2354  1.2354

 Free energy of the ion-electron system (eV)
  ---------------------------------------------------
  alpha Z        PSCENC =        42.82368006
  Ewald energy   TEWEN  =     -1941.32201603
  -Hartree energ DENC   =     -1049.76478864
  -exchange      EXHF   =         0.00000000
  -V(xc)+E(xc)   XCENC  =        51.78066351
  PAW double counting   =      1936.13951314    -1849.63472646
  entropy T*S    EENTRO =        -0.00000000
  eigenvalues    EBANDS =      -348.82249950
  atomic energy  EATOM  =      3103.96639798
  Solvation  Ediel_sol  =         0.00000000
  ---------------------------------------------------
  free energy    TOTEN  =       -54.83377594 eV

  energy without entropy =      -54.83377594  energy(sigma->0) =      -54.83377594


--------------------------------------------------------------------------------------------------------




----------------------------------------- Iteration    1(  11)  ---------------------------------------


    POTLOK:  cpu time    0.0560: real time    0.0289
    SETDIJ:  cpu time    0.0120: real time    0.0056
     EDDAV:  cpu time   39.5160: real time   20.8067
       DOS:  cpu time    0.0000: real time    0.0005
    CHARGE:  cpu time    5.5640: real time    5.9123
    MIXING:  cpu time    0.0040: real time    0.0046
    --------------------------------------------
      LOOP:  cpu time   45.1520: real time   27.5824

 eigenvalue-minimisations  :  9672
 total energy-change (2. order) : 0.3206794E-04  (-0.1464225E-03)
 number of electron      49.9999995 magnetization 
 augmentation part        0.9388201 magnetization 

 Broyden mixing:
  rms(total) = 0.39633E-02    rms(broyden)= 0.39616E-02
  rms(prec ) = 0.67428E-02
  weight for this iteration     100.00

 eigenvalues of (default mixing * dielectric matrix)
  average eigenvalue GAMMA=   1.5680
  2.5858  2.2331  1.4686  1.0548  1.0330  1.0330

 Free energy of the ion-electron system (eV)
  ---------------------------------------------------
  alpha Z        PSCENC =        42.82368006
  Ewald energy   TEWEN  =     -1941.32201603
  -Hartree energ DENC   =     -1049.68856648
  -exchange      EXHF   =         0.00000000
  -V(xc)+E(xc)   XCENC  =        51.78162452
  PAW double counting   =      1935.98482471    -1849.48081929
  entropy T*S    EENTRO =        -0.00000000
  eigenvalues    EBANDS =      -348.89886935
  atomic energy  EATOM  =      3103.96639798
  Solvation  Ediel_sol  =         0.00000000
  ---------------------------------------------------
  free energy    TOTEN  =       -54.83374387 eV

  energy without entropy =      -54.83374387  energy(sigma->0) =      -54.83374387


--------------------------------------------------------------------------------------------------------




----------------------------------------- Iteration    1(  12)  ---------------------------------------


    POTLOK:  cpu time    0.0240: real time    0.0240
    SETDIJ:  cpu time    0.0080: real time    0.0049
     EDDAV:  cpu time   39.6920: real time   21.7575
       DOS:  cpu time    0.0040: real time    0.0005
    CHARGE:  cpu time    0.8760: real time    0.6214
    MIXING:  cpu time    0.0040: real time    0.0027
    --------------------------------------------
      LOOP:  cpu time   40.6080: real time   22.4114

 eigenvalue-minimisations  :  8616
 total energy-change (2. order) :-0.2279476E-04  (-0.1774886E-04)
 number of electron      49.9999995 magnetization 
 augmentation part        0.9392486 magnetization 

 Broyden mixing:
  rms(total) = 0.16862E-02    rms(broyden)= 0.16860E-02
  rms(prec ) = 0.27646E-02
  weight for this iteration     100.00

 eigenvalues of (default mixing * dielectric matrix)
[...]
     28       5.5650      0.00000
     29       5.8392      0.00000
     30       6.5562      0.00000
     31       6.8448      0.00000
     32       7.4676      0.00000

 k-point   105 :       0.3333    0.3333    0.5000
  band No.  band energies     occupation 
      1     -18.1511      2.00000
      2     -15.1801      2.00000
      3     -15.1594      2.00000
      4     -15.1314      2.00000
      5     -15.1142      2.00000
      6     -15.1098      2.00000
      7     -11.2607      2.00000
      8     -10.5716      2.00000
      9     -10.5074      2.00000
     10     -10.1536      2.00000
     11      -7.7648      2.00000
     12      -7.6263      2.00000
     13      -6.9339      2.00000
     14      -5.8500      2.00000
     15      -3.5630      2.00000
     16      -3.5305      2.00000
     17      -1.0267      2.00000
     18      -0.7921      2.00000
     19      -0.7041      2.00000
     20      -0.6181      2.00000
     21      -0.2855      2.00000
     22       0.2232      2.00000
     23       0.5632      2.00000
     24       0.6073      2.00000
     25       0.8503      2.00000
     26       2.9879      0.00000
     27       3.7983      0.00000
     28       4.2090      0.00000
     29       5.6447      0.00000
     30       6.6591      0.00000
     31       7.0569      0.00000
     32       7.5225      0.00000

 k-point   106 :       0.5000    0.3333    0.5000
  band No.  band energies     occupation 
      1     -18.1508      2.00000
      2     -15.1801      2.00000
      3     -15.1562      2.00000
      4     -15.1314      2.00000
      5     -15.1144      2.00000
      6     -15.1099      2.00000
      7     -11.2667      2.00000
      8     -10.5663      2.00000
      9     -10.4892      2.00000
     10     -10.1530      2.00000
     11      -7.7680      2.00000
     12      -7.6313      2.00000
     13      -7.0664      2.00000
     14      -5.8292      2.00000
     15      -3.5572      2.00000
     16      -3.5198      2.00000
     17      -1.0499      2.00000
     18      -0.7917      2.00000
     19      -0.6846      2.00000
     20      -0.5775      2.00000
     21      -0.0183      2.00000
     22       0.2527      2.00000
     23       0.6055      2.00000
     24       0.7540      2.00000
     25       1.1615      2.00000
     26       2.9039      0.00000
     27       3.0053      0.00000
     28       3.9108      0.00000
     29       5.5802      0.00000
     30       6.6645      0.00000
     31       7.0749      0.00000
     32       7.7333      0.00000

 k-point   107 :      -0.3333    0.3333    0.5000
  band No.  band energies     occupation 
      1     -18.1511      2.00000
      2     -15.1801      2.00000
      3     -15.1594      2.00000
      4     -15.1314      2.00000
      5     -15.1142      2.00000
      6     -15.1098      2.00000
      7     -11.2608      2.00000
      8     -10.5715      2.00000
      9     -10.5074      2.00000
     10     -10.1536      2.00000
     11      -7.7648      2.00000
     12      -7.6262      2.00000
     13      -6.9340      2.00000
     14      -5.8500      2.00000
     15      -3.5630      2.00000
     16      -3.5306      2.00000
     17      -1.0266      2.00000
     18      -0.7916      2.00000
     19      -0.7038      2.00000
     20      -0.6187      2.00000
     21      -0.2851      2.00000
     22       0.2233      2.00000
     23       0.5635      2.00000
     24       0.6071      2.00000
     25       0.8498      2.00000
     26       2.9880      0.00000
     27       3.7999      0.00000
     28       4.2074      0.00000
     29       5.6447      0.00000
     30       6.6586      0.00000
     31       7.0577      0.00000
     32       7.5214      0.00000

 k-point   108 :      -0.1667    0.3333    0.5000
  band No.  band energies     occupation 
      1     -18.1516      2.00000
      2     -15.1801      2.00000
      3     -15.1658      2.00000
      4     -15.1314      2.00000
      5     -15.1139      2.00000
      6     -15.1095      2.00000
      7     -11.2487      2.00000
      8     -10.5838      2.00000
      9     -10.5394      2.00000
     10     -10.1552      2.00000
     11      -7.7584      2.00000
     12      -7.6156      2.00000
     13      -6.6408      2.00000
     14      -5.8908      2.00000
     15      -3.5733      2.00000
     16      -3.5539      2.00000
     17      -1.5017      2.00000
     18      -0.9794      2.00000
     19      -0.7254      2.00000
     20      -0.4899      2.00000
     21      -0.2093      2.00000
     22       0.1694      2.00000
     23       0.2935      2.00000
     24       0.4275      2.00000
     25       0.7333      2.00000
     26       3.2230      0.00000
     27       4.0708      0.00000
     28       5.5645      0.00000
     29       5.8392      0.00000
     30       6.5555      0.00000
     31       6.8452      0.00000
     32       7.4692      0.00000

 k-point   109 :       0.0000    0.5000    0.5000
  band No.  band energies     occupation 
      1     -18.1516      2.00000
      2     -15.1775      2.00000
      3     -15.1680      2.00000
      4     -15.1316      2.00000
      5     -15.1137      2.00000
      6     -15.1095      2.00000
      7     -11.2399      2.00000
      8     -10.5769      2.00000
      9     -10.4971      2.00000
     10     -10.2401      2.00000
     11      -7.7301      2.00000
     12      -7.6108      2.00000
     13      -6.5928      2.00000
     14      -5.9230      2.00000
     15      -3.5814      2.00000
     16      -3.5777      2.00000
     17      -1.8630      2.00000
     18      -1.0237      2.00000
     19      -0.2343      2.00000
     20      -0.1713      2.00000
     21      -0.1052      2.00000
     22       0.0005      2.00000
     23       0.1033      2.00000
     24       0.3711      2.00000
     25       0.9102      2.00000
     26       3.2681      0.00000
     27       3.2789      0.00000
     28       5.8788      0.00000
     29       6.3072      0.00000
     30       6.6619      0.00000
     31       6.7567      0.00000
     32       7.0921      0.00000

 k-point   110 :       0.1667    0.5000    0.5000
  band No.  band energies     occupation 
      1     -18.1513      2.00000
      2     -15.1775      2.00000
      3     -15.1648      2.00000
      4     -15.1316      2.00000
      5     -15.1139      2.00000
      6     -15.1097      2.00000
      7     -11.2442      2.00000
      8     -10.5742      2.00000
      9     -10.4958      2.00000
     10     -10.2196      2.00000
     11      -7.7355      2.00000
     12      -7.6167      2.00000
     13      -6.7620      2.00000
     14      -5.8998      2.00000
     15      -3.5701      2.00000
     16      -3.5644      2.00000
     17      -1.4524      2.00000
     18      -1.0557      2.00000
     19      -0.4520      2.00000
     20      -0.4113      2.00000
     21      -0.0575      2.00000
     22       0.2670      2.00000
     23       0.3169      2.00000
     24       0.3781      2.00000
     25       0.9376      2.00000
     26       3.1623      0.00000
     27       3.1688      0.00000
     28       5.5109      0.00000
     29       5.6923      0.00000
     30       6.7732      0.00000
     31       6.9509      0.00000
     32       7.3498      0.00000

 k-point   111 :       0.3333    0.5000    0.5000
  band No.  band energies     occupation 
      1     -18.1508      2.00000
      2     -15.1774      2.00000
      3     -15.1584      2.00000
      4     -15.1316      2.00000
      5     -15.1142      2.00000
      6     -15.1100      2.00000
      7     -11.2525      2.00000
      8     -10.5688      2.00000
      9     -10.4932      2.00000
     10     -10.1756      2.00000
     11      -7.7461      2.00000
     12      -7.6283      2.00000
     13      -7.0626      2.00000
     14      -5.8528      2.00000
     15      -3.5480      2.00000
     16      -3.5370      2.00000
     17      -1.1208      2.00000
     18      -0.6753      2.00000
     19      -0.6294      2.00000
     20      -0.5230      2.00000
     21      -0.0458      2.00000
     22       0.3414      2.00000
     23       0.6081      2.00000
     24       0.6200      2.00000
     25       1.0736      2.00000
     26       2.9262      0.00000
     27       2.9291      0.00000
     28       4.0233      0.00000
     29       5.4849      0.00000
     30       6.9626      0.00000
     31       7.3439      0.00000
     32       7.4827      0.00000

 k-point   112 :       0.5000    0.5000    0.5000
  band No.  band energies     occupation 
      1     -18.1506      2.00000
      2     -15.1774      2.00000
      3     -15.1552      2.00000
      4     -15.1316      2.00000
      5     -15.1144      2.00000
      6     -15.1101      2.00000
      7     -11.2568      2.00000
      8     -10.5662      2.00000
      9     -10.4919      2.00000
     10     -10.1518      2.00000
     11      -7.7515      2.00000
     12      -7.6342      2.00000
     13      -7.1997      2.00000
     14      -5.8289      2.00000
     15      -3.5369      2.00000
     16      -3.5230      2.00000
     17      -1.1539      2.00000
     18      -0.7504      2.00000
     19      -0.7101      2.00000
     20      -0.0448      2.00000
     21       0.0138      2.00000
     22       0.3382      2.00000
     23       0.7485      2.00000
     24       0.7521      2.00000
     25       1.3572      2.00000
     26       2.7985      0.00000
     27       2.8054      0.00000
     28       3.0266      0.00000
     29       5.4167      0.00000
     30       6.9514      0.00000
     31       7.3505      0.00000
     32       7.6341      0.00000


--------------------------------------------------------------------------------------------------------


 soft charge-density along one line, spin component           1
         0         1         2         3         4         5         6         7         8         9
 total charge-density along one line
 
 pseudopotential strength for first ion, spin component:           1
 10.443   0.008  -0.000   0.001   0.006   0.000  -0.001  -0.006
  0.008  -0.001   0.000  -0.000  -0.000   0.000  -0.000  -0.000
 -0.000   0.000  -3.984   0.000   0.000  -0.005   0.000  -0.000
  0.001  -0.000   0.000  -3.984  -0.002   0.000  -0.005   0.000
  0.006  -0.000   0.000  -0.002  -3.999  -0.000   0.000  -0.004
  0.000   0.000  -0.005   0.000  -0.000  -1.087   0.000   0.000
 -0.001  -0.000   0.000  -0.005   0.000   0.000  -1.087  -0.000
 -0.006  -0.000  -0.000   0.000  -0.004   0.000  -0.000  -1.088
 total augmentation occupancy for first ion, spin component:           1
  1.428  -1.063   0.000  -0.014  -0.130   0.000  -0.001  -0.006
 -1.063   0.892   0.000  -0.008  -0.072   0.000  -0.005  -0.040
  0.000   0.000   1.248   0.000   0.000   0.179  -0.000   0.000
 -0.014  -0.008   0.000   1.241  -0.041  -0.000   0.179  -0.000
 -0.130  -0.072   0.000  -0.041   0.901   0.000  -0.000   0.175
  0.000   0.000   0.179  -0.000   0.000   0.027  -0.000  -0.000
 -0.001  -0.005  -0.000   0.179  -0.000  -0.000   0.027   0.001
 -0.006  -0.040   0.000  -0.000   0.175  -0.000   0.001   0.037


------------------------ aborting loop because EDIFF is reached ----------------------------------------


 


 total charge     
 
# of ion     s       p       d       tot
----------------------------------------
  1        0.832   1.782   0.000   2.614
  2        1.212   2.767   0.000   3.979
  3        0.619   0.046   0.000   0.665
  4        0.618   0.046   0.000   0.665
  5        0.618   0.046   0.000   0.665
  6        0.587   0.079   0.000   0.666
  7        0.587   0.079   0.000   0.666
  8        0.583   0.079   0.000   0.662
  9        1.477   0.536   9.836  11.849
 10        1.512   2.792   0.009   4.313
 11        1.512   2.793   0.009   4.314
 12        1.513   2.781   0.008   4.302
------------------------------------------------
tot       11.670  13.827   9.862  35.360
 
    CHARGE:  cpu time    0.6880: real time    0.6730
    FORLOC:  cpu time    0.3960: real time    0.4023
    FORNL :  cpu time    3.0320: real time    3.2360
    STRESS:  cpu time   20.7720: real time   12.5302
    FORCOR:  cpu time    0.0480: real time    0.0242
    FORHAR:  cpu time    0.0840: real time    0.0537
    MIXING:  cpu time    0.0080: real time    0.0044
    OFIELD:  cpu time    0.0000: real time    0.0000

  FORCE on cell =-STRESS in cart. coord.  units (eV):
  Direction    XX          YY          ZZ          XY          YZ          ZX
  --------------------------------------------------------------------------------------
  Alpha Z    42.82368    42.82368    42.82368
  Ewald    -631.85511  -642.25523  -667.21442    -0.07437    -0.09326    21.50540
  Hartree   353.49938   355.88372   340.41693    -0.04945    -0.05746    12.74306
  E(xc)    -197.10643  -197.11382  -197.10899     0.00002    -0.00002    -0.00606
  Local    -625.84110  -614.48434  -575.38123     0.12579     0.14503   -33.84277
  n-local   462.12619   459.13440   459.04469    -0.00168     0.00003     0.35309
  augment    11.57318    11.62150    11.51547    -0.00011     0.00006     0.01722
  Kinetic   583.16772   583.15979   584.93499     0.00097     0.00427    -0.84363
  Fock        0.00000     0.00000     0.00000     0.00000     0.00000     0.00000
  -------------------------------------------------------------------------------------
  Total      -1.61249    -1.23030    -0.96889     0.00118    -0.00135    -0.07370
  in kB     -10.39643    -7.93225    -6.24684     0.00759    -0.00871    -0.47516
  external pressure =       -8.19 kB  Pullay stress =        0.00 kB


 VOLUME and BASIS-vectors are now :
 -----------------------------------------------------------------------------
  energy-cutoff  :      500.00
  volume of cell :      248.50
      direct lattice vectors                 reciprocal lattice vectors
     6.290120125  0.000000000  0.000000000     0.158979476 -0.000001969  0.001001495
     0.000077694  6.273890018  0.000000000     0.000000000  0.159390744  0.000003893
    -0.039667571 -0.000153793  6.296915042     0.000000000  0.000000000  0.158807923

  length of vectors
     6.290120125  6.273890018  6.297039986     0.158982630  0.159390744  0.158807923


 FORCES acting on ions
    electron-ion (+dipol)            ewald-force                    non-local-force                 convergence-correction
 -----------------------------------------------------------------------------------------------
   0.889E+02 -.818E-01 0.171E+02   -.969E+02 0.863E-01 -.179E+02   0.826E+01 -.369E-02 0.927E+00   0.119E-02 -.822E-05 0.165E-03
   -.424E+02 -.764E-02 0.333E+01   0.412E+02 0.321E-02 -.333E+01   0.827E+00 0.180E-02 -.287E-01   -.157E-03 -.140E-04 -.165E-03
   0.171E+02 0.538E-01 0.495E+02   -.184E+02 -.616E-01 -.550E+02   0.133E+01 0.769E-02 0.541E+01   0.360E-04 -.286E-06 0.454E-03
   0.252E+02 -.389E+02 -.176E+02   -.275E+02 0.435E+02 0.200E+02   0.220E+01 -.453E+01 -.238E+01   0.736E-04 -.400E-03 -.206E-03
   0.253E+02 0.388E+02 -.177E+02   -.275E+02 -.434E+02 0.202E+02   0.221E+01 0.451E+01 -.239E+01   0.754E-04 0.399E-03 -.208E-03
   -.270E+02 -.490E+02 0.270E+02   0.300E+02 0.546E+02 -.298E+02   -.291E+01 -.544E+01 0.271E+01   -.359E-03 -.836E-03 0.380E-03
   -.269E+02 0.491E+02 0.269E+02   0.299E+02 -.546E+02 -.296E+02   -.290E+01 0.545E+01 0.269E+01   -.359E-03 0.837E-03 0.378E-03
   -.144E+02 -.750E-01 -.583E+02   0.162E+02 0.820E-01 0.648E+02   -.177E+01 -.670E-02 -.636E+01   -.224E-03 -.210E-05 -.994E-03
   -.315E+02 0.633E-01 -.104E+02   0.304E+02 -.626E-01 0.101E+02   0.104E+01 -.747E-03 0.275E+00   -.523E-03 0.588E-05 -.407E-03
   -.110E+02 0.718E-01 0.414E+01   0.110E+02 -.738E-01 -.408E+01   0.404E-01 0.213E-02 -.636E-01   0.672E-04 0.358E-05 0.210E-03
   -.129E+02 -.219E-01 -.174E+02   0.128E+02 0.215E-01 0.179E+02   0.313E-01 0.383E-03 -.488E+00   0.409E-04 -.210E-05 0.120E-05
   0.163E+01 0.305E-01 -.696E+01   -.112E+01 -.291E-01 0.679E+01   -.532E+00 -.135E-02 0.137E+00   0.177E-03 0.138E-05 -.207E-03
 -----------------------------------------------------------------------------------------------
   -.782E+01 0.184E-02 -.450E+00   -.124E-13 0.122E-14 -.444E-14   0.782E+01 -.184E-02 0.450E+00   0.374E-04 -.161E-04 -.598E-03
 
 
 POSITION                                       TOTAL-FORCE (eV/Angst)
 -----------------------------------------------------------------------------------
      5.63915      6.27350      6.27384         0.314649      0.000799      0.034447
      0.85821      6.27280      0.15665        -0.331580     -0.002644     -0.026495
      5.40518      6.27196      5.19958        -0.019116     -0.000072     -0.051168
      5.26698      0.90190      0.45292        -0.029404      0.044487      0.020023
      5.26573      5.37368      0.45579        -0.029610     -0.045022      0.020444
      1.26776      0.84227      6.03329         0.057866      0.105049     -0.041241
      1.26657      5.42716      6.03557         0.056954     -0.102953     -0.039964
      1.13753     -0.00001      1.16715         0.030638      0.000234      0.117842
      2.97634      3.13707      2.99511         0.001902      0.000004      0.001362
      2.64610      3.13606      6.12444        -0.018277      0.000070      0.000544
      2.72152      0.00020      3.18965        -0.016506     -0.000010     -0.006367
      6.03902      3.13830      2.81942        -0.017517      0.000058     -0.029425
 -----------------------------------------------------------------------------------
    total drift:                                0.000862     -0.000011     -0.000273


--------------------------------------------------------------------------------------------------------



  FREE ENERGIE OF THE ION-ELECTRON SYSTEM (eV)
  ---------------------------------------------------
  free  energy   TOTEN  =       -54.83376328 eV

  energy  without entropy=      -54.83376328  energy(sigma->0) =      -54.83376328
 


--------------------------------------------------------------------------------------------------------


    POTLOK:  cpu time    0.1800: real time    3.8913


--------------------------------------------------------------------------------------------------------


 writing wavefunctions
     LOOP+:  cpu time  779.6840: real time  610.1189
    4ORBIT:  cpu time    0.0000: real time    0.0855
 


 total charge     
 
# of ion     s       p       d       tot
----------------------------------------
  1        0.832   1.782   0.000   2.614
  2        1.212   2.767   0.000   3.979
  3        0.619   0.046   0.000   0.665
  4        0.618   0.046   0.000   0.665
  5        0.618   0.046   0.000   0.665
  6        0.587   0.079   0.000   0.666
  7        0.587   0.079   0.000   0.666
  8        0.583   0.079   0.000   0.662
  9        1.477   0.536   9.836  11.849
 10        1.512   2.792   0.009   4.313
 11        1.512   2.793   0.009   4.314
 12        1.513   2.781   0.008   4.302
------------------------------------------------
tot       11.670  13.827   9.862  35.360
 

 total amount of memory used by VASP on root node   608305. kBytes
========================================================================

   base      :      30000. kBytes
   nonl-proj :     514091. kBytes
   fftplans  :       4240. kBytes
   grid      :      13455. kBytes
   one-center:        186. kBytes
   wavefun   :      46333. kBytes
 
  
  
 General timing and accounting informations for this job:
 ========================================================
  
                  Total CPU time used (sec):      808.896
                            User time (sec):      794.140
                          System time (sec):       14.756
                         Elapsed time (sec):      695.728
  
                   Maximum memory used (kb):      432152.
                   Average memory used (kb):           0.
  
                          Minor page faults:       102271
                          Major page faults:          223
                 Voluntary context switches:         4181
