PROCAR new format
# of k-points:  112         # of bands:  32         # of ions:  12

 k-point    1 :    0.00000000 0.00000000 0.00000000     weight = 0.00462963

band   1 # energy  -18.15387015 # occ.  2.00000000
 
ion      s      p      d    tot
  1  0.060  0.019  0.000  0.079
  2  0.552  0.000  0.000  0.552
  3  0.003  0.000  0.000  0.003
  4  0.003  0.000  0.000  0.004
  5  0.003  0.000  0.000  0.004
  6  0.053  0.009  0.000  0.062
  7  0.053  0.009  0.000  0.062
  8  0.052  0.009  0.000  0.061
  9  0.000  0.000  0.000  0.000
 10  0.000  0.000  0.000  0.000
 11  0.000  0.000  0.000  0.000
 12  0.000  0.000  0.000  0.000
tot  0.781  0.048  0.000  0.828
 
band   2 # energy  -15.19846500 # occ.  2.00000000
 
ion      s      p      d    tot
  1  0.000  0.000  0.000  0.000
  2  0.000  0.000  0.000  0.000
  3  0.000  0.000  0.000  0.000
  4  0.000  0.000  0.000  0.000
  5  0.000  0.000  0.000  0.000
  6  0.000  0.000  0.000  0.000
  7  0.000  0.000  0.000  0.000
  8  0.000  0.000  0.000  0.000
  9  0.000  0.000  0.964  0.964
 10  0.004  0.000  0.000  0.004
 11  0.003  0.000  0.000  0.004
 12  0.000  0.000  0.000  0.000
tot  0.007  0.000  0.965  0.972
 
band   3 # energy  -15.17508608 # occ.  2.00000000
 
ion      s      p      d    tot
  1  0.000  0.000  0.000  0.000
  2  0.000  0.000  0.000  0.000
  3  0.000  0.000  0.000  0.000
  4  0.000  0.000  0.000  0.000
  5  0.000  0.000  0.000  0.000
  6  0.000  0.000  0.000  0.000
  7  0.000  0.000  0.000  0.000
  8  0.000  0.000  0.000  0.000
  9  0.000  0.000  0.965  0.965
 10  0.001  0.000  0.000  0.001
 11  0.001  0.000  0.000  0.001
 12  0.004  0.000  0.000  0.005
tot  0.007  0.000  0.965  0.972
 
band   4 # energy  -15.13029174 # occ.  2.00000000
 
ion      s      p      d    tot
  1  0.000  0.000  0.000  0.000
  2  0.000  0.000  0.000  0.000
  3  0.000  0.000  0.000  0.000
  4  0.000  0.000  0.000  0.000
  5  0.000  0.000  0.000  0.000
  6  0.000  0.000  0.000  0.000
  7  0.000  0.000  0.000  0.000
  8  0.000  0.000  0.000  0.000
  9  0.000  0.000  0.978  0.978
 10  0.000  0.000  0.000  0.000
 11  0.000  0.000  0.000  0.000
 12  0.000  0.000  0.000  0.000
tot  0.000  0.000  0.978  0.978
 
band   5 # energy  -15.11288088 # occ.  2.00000000
 
ion      s      p      d    tot
  1  0.000  0.000  0.000  0.000
  2  0.000  0.000  0.000  0.000
  3  0.000  0.000  0.000  0.000
  4  0.000  0.000  0.000  0.000
  5  0.000  0.000  0.000  0.000
  6  0.000  0.000  0.000  0.000
  7  0.000  0.000  0.000  0.000
  8  0.000  0.000  0.000  0.000
  9  0.000  0.000  0.978  0.978
 10  0.000  0.000  0.000  0.000
 11  0.000  0.000  0.000  0.000
 12  0.000  0.000  0.000  0.000
tot  0.000  0.000  0.978  0.978
 
band   6 # energy  -15.10871780 # occ.  2.00000000
 
ion      s      p      d    tot
  1  0.000  0.000  0.000  0.000
  2  0.000  0.000  0.000  0.000
  3  0.000  0.000  0.000  0.000
  4  0.000  0.000  0.000  0.000
  5  0.000  0.000  0.000  0.000
  6  0.000  0.000  0.000  0.000
  7  0.000  0.000  0.000  0.000
  8  0.000  0.000  0.000  0.000
  9  0.000  0.000  0.978  0.978
 10  0.000  0.000  0.000  0.000
 11  0.000  0.000  0.000  0.000
 12  0.000  0.000  0.000  0.000
tot  0.000  0.000  0.978  0.978
 
band   7 # energy  -11.26184259 # occ.  2.00000000
 
ion      s      p      d    tot
  1  0.314  0.000  0.000  0.314
  2  0.028  0.129  0.000  0.157
  3  0.049  0.005  0.000  0.054
  4  0.049  0.005  0.000  0.054
  5  0.049  0.005  0.000  0.054
  6  0.021  0.003  0.000  0.024
  7  0.021  0.003  0.000  0.024
  8  0.022  0.003  0.000  0.025
  9  0.003  0.000  0.000  0.003
 10  0.024  0.000  0.000  0.024
 11  0.019  0.000  0.000  0.019
 12  0.001  0.000  0.000  0.001
tot  0.597  0.154  0.000  0.751
 
band   8 # energy  -10.95621484 # occ.  2.00000000
 
ion      s      p      d    tot
  1  0.019  0.001  0.000  0.019
  2  0.007  0.005  0.000  0.012
  3  0.004  0.000  0.000  0.004
  4  0.004  0.000  0.000  0.005
  5  0.004  0.000  0.000  0.005
  6  0.001  0.000  0.000  0.002
  7  0.001  0.000  0.000  0.002
  8  0.001  0.000  0.000  0.001
  9  0.059  0.000  0.000  0.059
 10  0.255  0.000  0.000  0.255
 11  0.217  0.000  0.000  0.217
 12  0.121  0.000  0.000  0.122
tot  0.695  0.008  0.001  0.704
 
band   9 # energy  -10.25261474 # occ.  2.00000000
 
ion      s      p      d    tot
  1  0.000  0.000  0.000  0.000
  2  0.000  0.001  0.000  0.001
  3  0.000  0.000  0.000  0.000
  4  0.000  0.000  0.000  0.000
  5  0.000  0.000  0.000  0.000
  6  0.000  0.000  0.000  0.000
  7  0.000  0.000  0.000  0.000
  8  0.002  0.000  0.000  0.002
  9  0.000  0.000  0.015  0.016
 10  0.371  0.000  0.000  0.371
 11  0.376  0.000  0.000  0.376
 12  0.002  0.000  0.000  0.002
tot  0.752  0.002  0.015  0.769
 
band  10 # energy   -9.97546282 # occ.  2.00000000
 
ion      s      p      d    tot
  1  0.003  0.000  0.000  0.003
  2  0.001  0.001  0.000  0.001
  3  0.001  0.000  0.000  0.001
  4  0.000  0.000  0.000  0.000
  5  0.000  0.000  0.000  0.000
  6  0.000  0.000  0.000  0.000
  7  0.000  0.000  0.000  0.000
  8  0.000  0.000  0.000  0.000
  9  0.003  0.000  0.015  0.018
 10  0.063  0.000  0.000  0.063
 11  0.098  0.000  0.000  0.098
 12  0.585  0.000  0.000  0.585
tot  0.754  0.002  0.015  0.771
 
band  11 # energy   -7.82926714 # occ.  2.00000000
 
ion      s      p      d    tot
  1  0.000  0.042  0.000  0.042
  2  0.000  0.397  0.000  0.397
  3  0.000  0.000  0.000  0.000
  4  0.013  0.001  0.000  0.014
  5  0.013  0.001  0.000  0.014
  6  0.127  0.011  0.000  0.138
  7  0.126  0.011  0.000  0.137
  8  0.000  0.003  0.000  0.003
  9  0.000  0.000  0.000  0.000
 10  0.000  0.003  0.000  0.003
 11  0.000  0.000  0.000  0.000
 12  0.000  0.000  0.000  0.000
tot  0.278  0.471  0.000  0.749
 
band  12 # energy   -7.66614381 # occ.  2.00000000
 
ion      s      p      d    tot
  1  0.000  0.046  0.000  0.046
  2  0.000  0.393  0.000  0.393
  3  0.017  0.001  0.000  0.019
  4  0.005  0.001  0.000  0.006
  5  0.005  0.001  0.000  0.006
  6  0.039  0.006  0.000  0.045
  7  0.040  0.006  0.000  0.046
  8  0.163  0.013  0.000  0.176
  9  0.000  0.000  0.000  0.000
 10  0.002  0.000  0.000  0.003
 11  0.002  0.003  0.000  0.005
 12  0.000  0.000  0.000  0.001
tot  0.274  0.469  0.000  0.744
 
band  13 # energy   -5.86608661 # occ.  2.00000000
 
ion      s      p      d    tot
  1  0.016  0.205  0.000  0.220
  2  0.009  0.281  0.000  0.290
  3  0.036  0.003  0.000  0.039
  4  0.033  0.003  0.000  0.036
  5  0.033  0.003  0.000  0.036
  6  0.013  0.003  0.000  0.015
  7  0.013  0.003  0.000  0.015
  8  0.011  0.003  0.000  0.014
  9  0.048  0.000  0.000  0.048
 10  0.000  0.000  0.000  0.000
 11  0.000  0.000  0.000  0.000
 12  0.002  0.000  0.000  0.002
tot  0.214  0.504  0.001  0.718
 
band  14 # energy   -5.47982548 # occ.  2.00000000
 
ion      s      p      d    tot
  1  0.001  0.015  0.000  0.016
  2  0.000  0.022  0.000  0.022
  3  0.002  0.000  0.000  0.003
  4  0.002  0.000  0.000  0.002
  5  0.002  0.000  0.000  0.002
  6  0.001  0.000  0.000  0.001
  7  0.001  0.000  0.000  0.001
  8  0.001  0.000  0.000  0.001
  9  0.601  0.000  0.000  0.601
 10  0.038  0.001  0.001  0.040
 11  0.041  0.001  0.001  0.043
 12  0.043  0.002  0.002  0.046
tot  0.733  0.042  0.005  0.779
 
band  15 # energy   -3.53721694 # occ.  2.00000000
 
ion      s      p      d    tot
  1  0.000  0.275  0.000  0.275
  2  0.000  0.046  0.000  0.046
  3  0.000  0.002  0.000  0.002
  4  0.147  0.007  0.000  0.154
  5  0.150  0.007  0.000  0.157
  6  0.028  0.002  0.000  0.030
  7  0.027  0.002  0.000  0.029
  8  0.000  0.000  0.000  0.000
  9  0.000  0.000  0.000  0.000
 10  0.000  0.001  0.000  0.001
 11  0.000  0.000  0.000  0.000
 12  0.000  0.002  0.000  0.002
tot  0.352  0.344  0.000  0.696
 
band  16 # energy   -3.52158834 # occ.  2.00000000
 
ion      s      p      d    tot
  1  0.000  0.271  0.000  0.271
  2  0.000  0.050  0.000  0.050
  3  0.195  0.009  0.000  0.204
  4  0.051  0.004  0.000  0.055
  5  0.048  0.004  0.000  0.052
  6  0.009  0.001  0.000  0.010
  7  0.010  0.001  0.000  0.011
  8  0.039  0.002  0.000  0.041
  9  0.000  0.000  0.000  0.000
 10  0.000  0.000  0.000  0.001
 11  0.001  0.001  0.000  0.002
 12  0.000  0.002  0.000  0.002
tot  0.352  0.345  0.000  0.698
 
band  17 # energy   -2.23625550 # occ.  2.00000000
 
ion      s      p      d    tot
  1  0.000  0.002  0.000  0.002
  2  0.000  0.004  0.000  0.004
  3  0.000  0.000  0.000  0.000
  4  0.000  0.000  0.000  0.000
  5  0.000  0.000  0.000  0.000
  6  0.000  0.000  0.000  0.000
  7  0.000  0.000  0.000  0.000
  8  0.000  0.000  0.000  0.001
  9  0.000  0.103  0.000  0.103
 10  0.000  0.267  0.000  0.267
 11  0.000  0.057  0.000  0.057
 12  0.000  0.024  0.000  0.024
tot  0.001  0.457  0.000  0.459
 
band  18 # energy   -2.23579103 # occ.  2.00000000
 
ion      s      p      d    tot
  1  0.000  0.002  0.000  0.002
  2  0.000  0.005  0.000  0.005
  3  0.000  0.000  0.000  0.000
  4  0.000  0.000  0.000  0.000
  5  0.000  0.000  0.000  0.000
  6  0.000  0.000  0.000  0.001
  7  0.000  0.000  0.000  0.001
  8  0.000  0.000  0.000  0.000
  9  0.000  0.104  0.000  0.104
 10  0.000  0.061  0.000  0.061
 11  0.000  0.262  0.000  0.262
 12  0.000  0.024  0.000  0.024
tot  0.001  0.458  0.000  0.459
 
band  19 # energy   -2.08337536 # occ.  2.00000000
 
ion      s      p      d    tot
  1  0.001  0.001  0.000  0.002
  2  0.001  0.000  0.000  0.002
  3  0.000  0.000  0.000  0.000
  4  0.000  0.000  0.000  0.000
  5  0.000  0.000  0.000  0.000
  6  0.000  0.000  0.000  0.000
  7  0.000  0.000  0.000  0.000
  8  0.000  0.000  0.000  0.000
  9  0.003  0.106  0.000  0.109
 10  0.001  0.039  0.000  0.040
 11  0.001  0.035  0.000  0.036
 12  0.000  0.264  0.000  0.264
tot  0.009  0.446  0.000  0.455
 
band  20 # energy   -0.10903469 # occ.  2.00000000
 
ion      s      p      d    tot
  1  0.000  0.000  0.000  0.000
  2  0.000  0.022  0.000  0.022
  3  0.000  0.000  0.000  0.000
  4  0.000  0.000  0.000  0.001
  5  0.000  0.000  0.000  0.001
  6  0.000  0.002  0.000  0.002
  7  0.000  0.002  0.000  0.002
  8  0.000  0.000  0.000  0.000
  9  0.000  0.006  0.000  0.006
 10  0.000  0.447  0.000  0.447
 11  0.000  0.048  0.000  0.048
 12  0.000  0.014  0.000  0.014
tot  0.001  0.541  0.000  0.542
 
band  21 # energy   -0.07495286 # occ.  2.00000000
 
ion      s      p      d    tot
  1  0.000  0.000  0.000  0.000
  2  0.000  0.017  0.000  0.018
  3  0.001  0.000  0.000  0.001
  4  0.000  0.000  0.000  0.000
  5  0.000  0.000  0.000  0.000
  6  0.000  0.000  0.000  0.000
  7  0.000  0.000  0.000  0.000
  8  0.000  0.003  0.000  0.003
  9  0.000  0.002  0.000  0.002
 10  0.000  0.110  0.000  0.111
 11  0.000  0.384  0.000  0.385
 12  0.000  0.012  0.000  0.012
tot  0.002  0.531  0.000  0.533
 
band  22 # energy    0.00295995 # occ.  2.00000000
 
ion      s      p      d    tot
  1  0.000  0.000  0.000  0.000
  2  0.002  0.001  0.000  0.003
  3  0.000  0.000  0.000  0.000
  4  0.000  0.000  0.000  0.000
  5  0.000  0.000  0.000  0.000
  6  0.000  0.000  0.000  0.001
  7  0.000  0.000  0.000  0.001
  8  0.000  0.001  0.000  0.001
  9  0.000  0.005  0.001  0.006
 10  0.000  0.303  0.000  0.303
 11  0.000  0.185  0.000  0.185
 12  0.000  0.032  0.000  0.032
tot  0.003  0.528  0.001  0.532
 
band  23 # energy    0.13185778 # occ.  2.00000000
 
ion      s      p      d    tot
  1  0.000  0.000  0.000  0.000
  2  0.003  0.002  0.000  0.005
  3  0.000  0.000  0.000  0.000
  4  0.000  0.000  0.000  0.000
  5  0.000  0.000  0.000  0.000
  6  0.000  0.001  0.000  0.001
  7  0.000  0.001  0.000  0.001
  8  0.001  0.000  0.000  0.001
  9  0.001  0.011  0.001  0.013
 10  0.000  0.086  0.000  0.087
 11  0.000  0.344  0.000  0.344
 12  0.001  0.090  0.000  0.091
tot  0.007  0.535  0.001  0.542
 
band  24 # energy    0.40188106 # occ.  2.00000000
 
ion      s      p      d    tot
  1  0.000  0.005  0.000  0.005
  2  0.000  0.000  0.000  0.000
  3  0.000  0.000  0.000  0.000
  4  0.001  0.000  0.000  0.001
  5  0.001  0.000  0.000  0.001
  6  0.000  0.000  0.000  0.000
  7  0.000  0.000  0.000  0.000
  8  0.000  0.000  0.000  0.000
  9  0.000  0.004  0.000  0.004
 10  0.000  0.003  0.000  0.003
 11  0.000  0.060  0.000  0.061
 12  0.000  0.465  0.000  0.465
tot  0.002  0.537  0.000  0.539
 
band  25 # energy    0.41324513 # occ.  2.00000000
 
ion      s      p      d    tot
  1  0.000  0.004  0.000  0.004
  2  0.000  0.000  0.000  0.001
  3  0.001  0.000  0.000  0.001
  4  0.000  0.000  0.000  0.000
  5  0.000  0.000  0.000  0.000
  6  0.000  0.000  0.000  0.000
  7  0.000  0.000  0.000  0.000
  8  0.000  0.000  0.000  0.000
  9  0.000  0.004  0.000  0.005
 10  0.000  0.062  0.000  0.062
 11  0.000  0.005  0.000  0.005
 12  0.000  0.462  0.000  0.462
tot  0.002  0.537  0.001  0.540
 
band  26 # energy    4.73962565 # occ.  0.00000000
 
ion      s      p      d    tot
  1  0.030  0.015  0.000  0.045
  2  0.029  0.010  0.000  0.039
  3  0.000  0.004  0.000  0.004
  4  0.000  0.004  0.000  0.004
  5  0.000  0.004  0.000  0.004
  6  0.002  0.004  0.000  0.006
  7  0.002  0.004  0.000  0.006
  8  0.002  0.004  0.000  0.006
  9  0.001  0.002  0.000  0.004
 10  0.018  0.002  0.004  0.024
 11  0.019  0.002  0.003  0.024
 12  0.024  0.004  0.004  0.032
tot  0.128  0.060  0.011  0.198
 
band  27 # energy    5.78546989 # occ.  0.00000000
 
ion      s      p      d    tot
  1  0.000  0.007  0.000  0.007
  2  0.000  0.013  0.000  0.013
  3  0.000  0.001  0.000  0.001
  4  0.000  0.001  0.000  0.001
  5  0.000  0.001  0.000  0.001
  6  0.002  0.003  0.000  0.005
  7  0.002  0.003  0.000  0.005
  8  0.000  0.002  0.000  0.002
  9  0.000  0.075  0.021  0.095
 10  0.000  0.000  0.025  0.025
 11  0.000  0.037  0.028  0.066
 12  0.000  0.004  0.009  0.013
tot  0.005  0.146  0.084  0.235
 
band  28 # energy    5.92341383 # occ.  0.00000000
 
ion      s      p      d    tot
  1  0.000  0.001  0.000  0.001
  2  0.001  0.006  0.000  0.006
  3  0.001  0.000  0.000  0.001
  4  0.001  0.000  0.000  0.001
  5  0.001  0.000  0.000  0.001
  6  0.000  0.001  0.000  0.001
  7  0.000  0.001  0.000  0.001
  8  0.001  0.000  0.000  0.001
  9  0.000  0.148  0.012  0.161
 10  0.000  0.073  0.024  0.097
 11  0.005  0.004  0.006  0.015
 12  0.001  0.010  0.017  0.028
tot  0.010  0.245  0.059  0.314
 
band  29 # energy    6.10120877 # occ.  0.00000000
 
ion      s      p      d    tot
  1  0.000  0.013  0.000  0.013
  2  0.001  0.028  0.000  0.029
  3  0.003  0.002  0.000  0.004
  4  0.000  0.002  0.000  0.002
  5  0.000  0.002  0.000  0.002
  6  0.001  0.003  0.000  0.004
  7  0.001  0.003  0.000  0.004
  8  0.001  0.002  0.000  0.004
  9  0.000  0.013  0.002  0.015
 10  0.017  0.006  0.007  0.030
 11  0.004  0.000  0.015  0.019
 12  0.000  0.003  0.018  0.021
tot  0.027  0.077  0.042  0.146
 
band  30 # energy    6.23255351 # occ.  0.00000000
 
ion      s      p      d    tot
  1  0.003  0.008  0.000  0.011
  2  0.016  0.024  0.000  0.041
  3  0.001  0.000  0.000  0.001
  4  0.002  0.000  0.000  0.002
  5  0.002  0.000  0.000  0.002
  6  0.000  0.004  0.000  0.004
  7  0.000  0.004  0.000  0.004
  8  0.000  0.004  0.000  0.005
  9  0.000  0.026  0.006  0.032
 10  0.005  0.007  0.031  0.042
 11  0.010  0.000  0.017  0.027
 12  0.004  0.001  0.008  0.014
tot  0.044  0.080  0.061  0.185
 
band  31 # energy    6.34904289 # occ.  0.00000000
 
ion      s      p      d    tot
  1  0.000  0.000  0.000  0.000
  2  0.000  0.006  0.000  0.006
  3  0.000  0.000  0.000  0.000
  4  0.001  0.000  0.000  0.001
  5  0.001  0.000  0.000  0.001
  6  0.001  0.001  0.000  0.002
  7  0.001  0.001  0.000  0.002
  8  0.000  0.001  0.000  0.001
  9  0.000  0.087  0.026  0.113
 10  0.000  0.002  0.015  0.016
 11  0.000  0.050  0.033  0.083
 12  0.000  0.000  0.026  0.026
tot  0.004  0.148  0.100  0.252
 
band  32 # energy    7.03924725 # occ.  0.00000000
 
ion      s      p      d    tot
  1  0.001  0.001  0.000  0.002
  2  0.000  0.000  0.000  0.000
  3  0.000  0.000  0.000  0.000
  4  0.000  0.000  0.000  0.000
  5  0.000  0.000  0.000  0.000
  6  0.000  0.000  0.000  0.000
  7  0.000  0.000  0.000  0.000
  8  0.000  0.000  0.000  0.000
  9  0.001  0.374  0.000  0.375
 10  0.001  0.055  0.002  0.057
 11  0.001  0.008  0.002  0.011
 12  0.000  0.190  0.003  0.193
tot  0.004  0.628  0.007  0.639
 

 k-point    2 :    0.16666667 0.00000000 0.00000000     weight = 0.00925926

band   1 # energy  -18.15355576 # occ.  2.00000000
 
ion      s      p      d    tot
  1  0.060  0.019  0.000  0.079
  2  0.552  0.000  0.000  0.552
  3  0.003  0.000  0.000  0.003
  4  0.003  0.000  0.000  0.004
  5  0.003  0.000  0.000  0.004
  6  0.053  0.009  0.000  0.062
  7  0.053  0.009  0.000  0.062
  8  0.052  0.009  0.000  0.061
  9  0.000  0.000  0.000  0.000
 10  0.000  0.000  0.000  0.000
 11  0.000  0.000  0.000  0.000
 12  0.000  0.000  0.000  0.000
tot  0.781  0.048  0.000  0.828
 
band   2 # energy  -15.19845204 # occ.  2.00000000
 
ion      s      p      d    tot
  1  0.000  0.000  0.000  0.000
  2  0.000  0.000  0.000  0.000
  3  0.000  0.000  0.000  0.000
  4  0.000  0.000  0.000  0.000
  5  0.000  0.000  0.000  0.000
  6  0.000  0.000  0.000  0.000
  7  0.000  0.000  0.000  0.000
  8  0.000  0.000  0.000  0.000
  9  0.000  0.000  0.964  0.964
 10  0.004  0.000  0.000  0.004
 11  0.003  0.000  0.000  0.004
 12  0.000  0.000  0.000  0.000
tot  0.007  0.000  0.965  0.972
 
band   3 # energy  -15.17197155 # occ.  2.00000000
 
ion      s      p      d    tot
  1  0.000  0.000  0.000  0.000
  2  0.000  0.000  0.000  0.000
  3  0.000  0.000  0.000  0.000
  4  0.000  0.000  0.000  0.000
  5  0.000  0.000  0.000  0.000
  6  0.000  0.000  0.000  0.000
  7  0.000  0.000  0.000  0.000
  8  0.000  0.000  0.000  0.000
  9  0.000  0.000  0.966  0.966
 10  0.001  0.000  0.000  0.001
 11  0.001  0.000  0.000  0.001
 12  0.003  0.000  0.000  0.004
tot  0.006  0.000  0.966  0.972
 
band   4 # energy  -15.13028897 # occ.  2.00000000
 
ion      s      p      d    tot
  1  0.000  0.000  0.000  0.000
  2  0.000  0.000  0.000  0.000
  3  0.000  0.000  0.000  0.000
  4  0.000  0.000  0.000  0.000
  5  0.000  0.000  0.000  0.000
  6  0.000  0.000  0.000  0.000
  7  0.000  0.000  0.000  0.000
  8  0.000  0.000  0.000  0.000
  9  0.000  0.000  0.978  0.978
 10  0.000  0.000  0.000  0.000
 11  0.000  0.000  0.000  0.000
 12  0.000  0.000  0.000  0.000
tot  0.000  0.000  0.978  0.978
 
band   5 # energy  -15.11304301 # occ.  2.00000000
 
ion      s      p      d    tot
  1  0.000  0.000  0.000  0.000
  2  0.000  0.000  0.000  0.000
  3  0.000  0.000  0.000  0.000
  4  0.000  0.000  0.000  0.000
  5  0.000  0.000  0.000  0.000
  6  0.000  0.000  0.000  0.000
  7  0.000  0.000  0.000  0.000
  8  0.000  0.000  0.000  0.000
  9  0.000  0.000  0.978  0.978
 10  0.000  0.000  0.000  0.000
 11  0.000  0.000  0.000  0.000
 12  0.000  0.000  0.000  0.000
tot  0.000  0.000  0.978  0.978
 
band   6 # energy  -15.10886070 # occ.  2.00000000
 
ion      s      p      d    tot
  1  0.000  0.000  0.000  0.000
  2  0.000  0.000  0.000  0.000
  3  0.000  0.000  0.000  0.000
  4  0.000  0.000  0.000  0.000
  5  0.000  0.000  0.000  0.000
  6  0.000  0.000  0.000  0.000
  7  0.000  0.000  0.000  0.000
  8  0.000  0.000  0.000  0.000
  9  0.000  0.000  0.978  0.978
 10  0.000  0.000  0.000  0.000
 11  0.000  0.000  0.000  0.000
 12  0.000  0.000  0.000  0.000
tot  0.000  0.000  0.978  0.978
 
band   7 # energy  -11.29160437 # occ.  2.00000000
 
ion      s      p      d    tot
  1  0.295  0.000  0.000  0.295
  2  0.025  0.121  0.000  0.146
  3  0.046  0.005  0.000  0.051
  4  0.046  0.005  0.000  0.051
  5  0.046  0.005  0.000  0.051
  6  0.020  0.003  0.000  0.022
  7  0.020  0.003  0.000  0.022
  8  0.020  0.003  0.000  0.023
  9  0.006  0.000  0.000  0.006
 10  0.040  0.000  0.000  0.040
 11  0.034  0.000  0.000  0.034
 12  0.004  0.000  0.000  0.004
tot  0.600  0.144  0.000  0.744
 
band   8 # energy  -10.89669117 # occ.  2.00000000
 
ion      s      p      d    tot
  1  0.037  0.000  0.000  0.038
  2  0.009  0.013  0.000  0.023
  3  0.007  0.001  0.000  0.007
  4  0.007  0.001  0.000  0.007
  5  0.007  0.001  0.000  0.007
  6  0.002  0.001  0.000  0.003
  7  0.002  0.001  0.000  0.003
  8  0.002  0.001  0.000  0.003
  9  0.054  0.000  0.001  0.055
 10  0.251  0.000  0.000  0.251
 11  0.210  0.000  0.000  0.210
 12  0.105  0.000  0.000  0.105
tot  0.695  0.018  0.001  0.714
 
band   9 # energy  -10.25203263 # occ.  2.00000000
 
ion      s      p      d    tot
  1  0.000  0.000  0.000  0.000
  2  0.000  0.001  0.000  0.001
  3  0.000  0.000  0.000  0.000
  4  0.000  0.000  0.000  0.000
  5  0.000  0.000  0.000  0.000
  6  0.000  0.000  0.000  0.000
  7  0.000  0.000  0.000  0.000
  8  0.002  0.000  0.000  0.002
  9  0.000  0.000  0.015  0.016
 10  0.368  0.000  0.000  0.368
 11  0.379  0.000  0.000  0.379
 12  0.003  0.000  0.000  0.003
tot  0.752  0.002  0.015  0.769
 
band  10 # energy  -10.01057945 # occ.  2.00000000
 
ion      s      p      d    tot
  1  0.003  0.000  0.000  0.003
  2  0.001  0.001  0.000  0.002
  3  0.001  0.000  0.000  0.001
  4  0.000  0.000  0.000  0.001
  5  0.000  0.000  0.000  0.001
  6  0.000  0.000  0.000  0.000
  7  0.000  0.000  0.000  0.000
  8  0.000  0.000  0.000  0.000
  9  0.002  0.002  0.012  0.015
 10  0.052  0.000  0.000  0.052
 11  0.086  0.000  0.000  0.086
 12  0.605  0.000  0.000  0.605
tot  0.751  0.003  0.012  0.766
 
band  11 # energy   -7.82680408 # occ.  2.00000000
 
ion      s      p      d    tot
  1  0.000  0.042  0.000  0.042
  2  0.000  0.398  0.000  0.398
  3  0.000  0.000  0.000  0.000
  4  0.012  0.001  0.000  0.013
  5  0.013  0.001  0.000  0.014
  6  0.127  0.011  0.000  0.138
  7  0.126  0.011  0.000  0.137
  8  0.000  0.003  0.000  0.003
  9  0.000  0.000  0.000  0.000
 10  0.000  0.003  0.000  0.003
 11  0.000  0.000  0.000  0.000
 12  0.000  0.000  0.000  0.000
tot  0.278  0.471  0.000  0.749
 
band  12 # energy   -7.66351495 # occ.  2.00000000
 
ion      s      p      d    tot
  1  0.000  0.046  0.000  0.046
  2  0.000  0.394  0.000  0.394
  3  0.017  0.001  0.000  0.019
  4  0.005  0.001  0.000  0.006
  5  0.005  0.001  0.000  0.006
  6  0.039  0.006  0.000  0.045
  7  0.040  0.006  0.000  0.046
  8  0.163  0.013  0.000  0.176
  9  0.000  0.000  0.000  0.000
 10  0.002  0.000  0.000  0.003
 11  0.002  0.002  0.000  0.005
 12  0.000  0.000  0.000  0.001
tot  0.275  0.470  0.000  0.745
 
band  13 # energy   -5.88409801 # occ.  2.00000000
 
ion      s      p      d    tot
  1  0.014  0.180  0.000  0.194
  2  0.009  0.246  0.000  0.254
  3  0.032  0.003  0.000  0.035
  4  0.029  0.003  0.000  0.032
  5  0.029  0.003  0.000  0.032
  6  0.011  0.002  0.000  0.013
  7  0.011  0.002  0.000  0.013
  8  0.010  0.002  0.000  0.012
  9  0.118  0.000  0.000  0.119
 10  0.002  0.001  0.001  0.003
 11  0.002  0.000  0.001  0.003
 12  0.004  0.003  0.000  0.007
tot  0.271  0.445  0.001  0.717
 
band  14 # energy   -5.63143074 # occ.  2.00000000
 
ion      s      p      d    tot
  1  0.003  0.040  0.000  0.043
  2  0.001  0.058  0.000  0.058
  3  0.007  0.001  0.000  0.008
  4  0.006  0.001  0.000  0.007
  5  0.006  0.001  0.000  0.007
  6  0.002  0.001  0.000  0.003
  7  0.002  0.001  0.000  0.003
  8  0.002  0.001  0.000  0.003
  9  0.507  0.001  0.000  0.509
 10  0.038  0.000  0.001  0.040
 11  0.040  0.001  0.001  0.042
 12  0.027  0.012  0.001  0.040
tot  0.643  0.116  0.003  0.762
 
band  15 # energy   -3.56219712 # occ.  2.00000000
 
ion      s      p      d    tot
  1  0.000  0.271  0.000  0.271
  2  0.000  0.043  0.000  0.043
  3  0.000  0.002  0.000  0.002
  4  0.145  0.007  0.000  0.152
  5  0.147  0.007  0.000  0.154
  6  0.027  0.001  0.000  0.028
  7  0.027  0.001  0.000  0.028
  8  0.000  0.000  0.000  0.000
  9  0.000  0.001  0.000  0.001
 10  0.000  0.005  0.000  0.005
 11  0.000  0.001  0.000  0.001
 12  0.000  0.002  0.000  0.002
tot  0.346  0.343  0.000  0.689
 
band  16 # energy   -3.54423386 # occ.  2.00000000
 
ion      s      p      d    tot
  1  0.000  0.268  0.000  0.268
  2  0.000  0.048  0.000  0.048
  3  0.192  0.009  0.000  0.200
  4  0.050  0.004  0.000  0.054
  5  0.048  0.004  0.000  0.052
  6  0.009  0.001  0.000  0.010
  7  0.010  0.001  0.000  0.010
  8  0.037  0.002  0.000  0.039
  9  0.000  0.001  0.000  0.001
 10  0.000  0.001  0.000  0.002
 11  0.000  0.004  0.000  0.005
 12  0.000  0.001  0.000  0.001
tot  0.348  0.343  0.000  0.691
 
band  17 # energy   -2.20788894 # occ.  2.00000000
 
ion      s      p      d    tot
  1  0.000  0.004  0.000  0.004
  2  0.000  0.005  0.000  0.005
  3  0.002  0.000  0.000  0.002
  4  0.000  0.000  0.000  0.001
  5  0.001  0.000  0.000  0.001
  6  0.000  0.000  0.000  0.000
  7  0.000  0.000  0.000  0.000
  8  0.001  0.001  0.000  0.002
  9  0.000  0.104  0.000  0.104
 10  0.000  0.292  0.000  0.292
 11  0.000  0.032  0.000  0.032
 12  0.000  0.023  0.000  0.023
tot  0.005  0.460  0.001  0.465
 
band  18 # energy   -2.19638856 # occ.  2.00000000
 
ion      s      p      d    tot
  1  0.000  0.004  0.000  0.004
  2  0.000  0.007  0.000  0.007
  3  0.000  0.000  0.000  0.000
  4  0.002  0.000  0.000  0.002
  5  0.002  0.000  0.000  0.002
  6  0.001  0.000  0.000  0.001
  7  0.001  0.000  0.000  0.001
  8  0.000  0.000  0.000  0.000
  9  0.000  0.104  0.000  0.105
 10  0.000  0.036  0.000  0.036
 11  0.000  0.290  0.000  0.290
 12  0.000  0.019  0.000  0.019
tot  0.005  0.461  0.001  0.467
 
band  19 # energy   -1.67493930 # occ.  2.00000000
 
ion      s      p      d    tot
  1  0.001  0.001  0.000  0.001
  2  0.002  0.001  0.000  0.003
  3  0.000  0.000  0.000  0.000
  4  0.000  0.000  0.000  0.000
  5  0.000  0.000  0.000  0.000
  6  0.000  0.000  0.000  0.000
  7  0.000  0.000  0.000  0.000
  8  0.000  0.000  0.000  0.000
  9  0.023  0.092  0.002  0.118
 10  0.001  0.059  0.000  0.060
 11  0.001  0.052  0.000  0.053
 12  0.008  0.228  0.001  0.236
tot  0.036  0.434  0.003  0.473
 
band  20 # energy   -0.08267577 # occ.  2.00000000
 
ion      s      p      d    tot
  1  0.000  0.001  0.000  0.001
  2  0.000  0.023  0.000  0.023
  3  0.000  0.000  0.000  0.000
  4  0.001  0.000  0.000  0.001
  5  0.001  0.000  0.000  0.001
  6  0.000  0.002  0.000  0.003
  7  0.000  0.002  0.000  0.003
  8  0.000  0.000  0.000  0.000
  9  0.000  0.006  0.000  0.006
 10  0.000  0.446  0.000  0.446
 11  0.000  0.049  0.000  0.049
 12  0.000  0.014  0.000  0.014
tot  0.003  0.544  0.000  0.548
 
band  21 # energy   -0.08032666 # occ.  2.00000000
 
ion      s      p      d    tot
  1  0.000  0.002  0.000  0.002
  2  0.000  0.012  0.000  0.012
  3  0.001  0.000  0.000  0.001
  4  0.000  0.000  0.000  0.000
  5  0.000  0.000  0.000  0.000
  6  0.000  0.001  0.000  0.001
  7  0.000  0.001  0.000  0.001
  8  0.000  0.002  0.000  0.002
  9  0.000  0.001  0.000  0.001
 10  0.000  0.229  0.000  0.229
 11  0.000  0.254  0.000  0.254
 12  0.000  0.020  0.000  0.020
tot  0.003  0.521  0.001  0.524
 
band  22 # energy    0.00496669 # occ.  2.00000000
 
ion      s      p      d    tot
  1  0.000  0.001  0.000  0.001
  2  0.001  0.009  0.000  0.010
  3  0.001  0.000  0.000  0.001
  4  0.000  0.000  0.000  0.000
  5  0.000  0.000  0.000  0.000
  6  0.000  0.000  0.000  0.000
  7  0.000  0.000  0.000  0.000
  8  0.000  0.002  0.000  0.002
  9  0.001  0.007  0.000  0.008
 10  0.000  0.130  0.000  0.131
 11  0.000  0.349  0.000  0.349
 12  0.000  0.036  0.000  0.036
tot  0.005  0.534  0.001  0.539
 
band  23 # energy    0.14445677 # occ.  2.00000000
 
ion      s      p      d    tot
  1  0.001  0.001  0.000  0.001
  2  0.003  0.003  0.000  0.006
  3  0.000  0.000  0.000  0.000
  4  0.000  0.000  0.000  0.000
  5  0.000  0.000  0.000  0.000
  6  0.000  0.001  0.000  0.001
  7  0.000  0.001  0.000  0.001
  8  0.001  0.000  0.000  0.001
  9  0.008  0.015  0.001  0.024
 10  0.000  0.106  0.000  0.106
 11  0.000  0.284  0.000  0.284
 12  0.001  0.121  0.000  0.122
tot  0.013  0.531  0.002  0.546
 
band  24 # energy    0.33807145 # occ.  2.00000000
 
ion      s      p      d    tot
  1  0.000  0.005  0.000  0.005
  2  0.000  0.000  0.000  0.000
  3  0.000  0.000  0.000  0.000
  4  0.001  0.000  0.000  0.001
  5  0.001  0.000  0.000  0.001
  6  0.000  0.000  0.000  0.000
  7  0.000  0.000  0.000  0.000
  8  0.000  0.000  0.000  0.000
  9  0.000  0.003  0.001  0.005
 10  0.000  0.004  0.000  0.004
 11  0.000  0.048  0.000  0.048
 12  0.000  0.465  0.000  0.465
tot  0.002  0.527  0.002  0.530
 
band  25 # energy    0.35813981 # occ.  2.00000000
 
ion      s      p      d    tot
  1  0.000  0.004  0.000  0.004
  2  0.000  0.001  0.000  0.001
  3  0.001  0.000  0.000  0.001
  4  0.000  0.000  0.000  0.000
  5  0.000  0.000  0.000  0.000
  6  0.000  0.000  0.000  0.000
  7  0.000  0.000  0.000  0.000
  8  0.000  0.000  0.000  0.000
  9  0.001  0.004  0.001  0.005
 10  0.000  0.061  0.000  0.061
 11  0.000  0.007  0.000  0.007
 12  0.000  0.451  0.000  0.451
tot  0.002  0.528  0.002  0.532
 
band  26 # energy    4.86866855 # occ.  0.00000000
 
ion      s      p      d    tot
  1  0.024  0.016  0.000  0.040
  2  0.039  0.010  0.000  0.049
  3  0.000  0.004  0.000  0.004
  4  0.000  0.003  0.000  0.003
  5  0.000  0.003  0.000  0.003
  6  0.003  0.005  0.000  0.008
  7  0.003  0.005  0.000  0.008
  8  0.002  0.005  0.000  0.007
  9  0.001  0.009  0.000  0.010
 10  0.020  0.007  0.004  0.031
 11  0.020  0.007  0.004  0.031
 12  0.021  0.007  0.003  0.031
tot  0.133  0.081  0.011  0.225
 
band  27 # energy    5.77662117 # occ.  0.00000000
 
ion      s      p      d    tot
  1  0.000  0.005  0.000  0.005
  2  0.000  0.012  0.000  0.012
  3  0.000  0.001  0.000  0.001
  4  0.000  0.001  0.000  0.001
  5  0.000  0.001  0.000  0.001
  6  0.003  0.003  0.000  0.006
  7  0.003  0.002  0.000  0.006
  8  0.000  0.002  0.000  0.002
  9  0.000  0.087  0.020  0.106
 10  0.000  0.000  0.024  0.024
 11  0.000  0.052  0.027  0.080
 12  0.000  0.003  0.010  0.013
tot  0.007  0.168  0.081  0.256
 
band  28 # energy    5.86309873 # occ.  0.00000000
 