  96  96   0   0
  0.2080188E+02  0.1257760E-08  0.1245754E-08  0.1274818E-08  0.5000000E-15
  1.000000000000000E-004
  CAR 
 MAPbI3-Cubic                            
     10.01981097    -22.35110086  301      1.19873750      1.00000000
    -22.351  0.0000E+00  0.0000E+00
    -22.243  0.0000E+00  0.0000E+00
    -22.135  0.0000E+00  0.0000E+00
    -22.027  0.0000E+00  0.0000E+00
    -21.919  0.0000E+00  0.0000E+00
    -21.812  0.0000E+00  0.0000E+00
    -21.704  0.0000E+00  0.0000E+00
    -21.596  0.0000E+00  0.0000E+00
    -21.488  0.0000E+00  0.0000E+00
    -21.380  0.0000E+00  0.0000E+00
    -21.272  0.0000E+00  0.0000E+00
    -21.164  0.0000E+00  0.0000E+00
    -21.056  0.0000E+00  0.0000E+00
    -20.948  0.0000E+00  0.0000E+00
    -20.840  0.0000E+00  0.1600E+02
    -20.733  0.0000E+00  0.1600E+02
    -20.625  0.0000E+00  0.1600E+02
    -20.517  0.0000E+00  0.1600E+02
    -20.409  0.0000E+00  0.1600E+02
    -20.301  0.0000E+00  0.1600E+02
    -20.193  0.0000E+00  0.1600E+02
    -20.085  0.0000E+00  0.1600E+02
    -19.977  0.0000E+00  0.1600E+02
    -19.869  0.0000E+00  0.1600E+02
    -19.761  0.0000E+00  0.1600E+02
    -19.654  0.0000E+00  0.1600E+02
    -19.546  0.0000E+00  0.1600E+02
    -19.438  0.0000E+00  0.1600E+02
    -19.330  0.0000E+00  0.1600E+02
    -19.222  0.0000E+00  0.1600E+02
    -19.114  0.0000E+00  0.1600E+02
    -19.006  0.0000E+00  0.1600E+02
    -18.898  0.0000E+00  0.1600E+02
    -18.790  0.0000E+00  0.1600E+02
    -18.682  0.0000E+00  0.1600E+02
    -18.574  0.0000E+00  0.1600E+02
    -18.467  0.0000E+00  0.1600E+02
    -18.359  0.0000E+00  0.1600E+02
    -18.251  0.0000E+00  0.1600E+02
    -18.143  0.0000E+00  0.1600E+02
    -18.035  0.0000E+00  0.1600E+02
    -17.927  0.0000E+00  0.1600E+02
    -17.819  0.0000E+00  0.1600E+02
    -17.711  0.0000E+00  0.1600E+02
    -17.603  0.0000E+00  0.1600E+02
    -17.495  0.0000E+00  0.1600E+02
    -17.388  0.0000E+00  0.1600E+02
    -17.280  0.0000E+00  0.1600E+02
    -17.172  0.8598E+02  0.4661E+02
    -17.064  0.0000E+00  0.9600E+02
    -16.956  0.0000E+00  0.9600E+02
    -16.848  0.0000E+00  0.9600E+02
    -16.740  0.0000E+00  0.9600E+02
    -16.632  0.0000E+00  0.9600E+02
    -16.524  0.0000E+00  0.9600E+02
    -16.416  0.0000E+00  0.9600E+02
    -16.309  0.0000E+00  0.9600E+02
    -16.201  0.0000E+00  0.9600E+02
    -16.093  0.0000E+00  0.9600E+02
    -15.985  0.0000E+00  0.9600E+02
    -15.877  0.0000E+00  0.9600E+02
    -15.769  0.0000E+00  0.9600E+02
    -15.661  0.0000E+00  0.9600E+02
    -15.553  0.0000E+00  0.9600E+02
    -15.445  0.0000E+00  0.9600E+02
    -15.337  0.0000E+00  0.9600E+02
    -15.230  0.0000E+00  0.9600E+02
    -15.122  0.0000E+00  0.9600E+02
    -15.014  0.0000E+00  0.9600E+02
    -14.906  0.0000E+00  0.9600E+02
    -14.798  0.0000E+00  0.9600E+02
    -14.690  0.0000E+00  0.9600E+02
    -14.582  0.0000E+00  0.9600E+02
    -14.474  0.0000E+00  0.9600E+02
    -14.366  0.0000E+00  0.9600E+02
    -14.258  0.0000E+00  0.9600E+02
    -14.150  0.0000E+00  0.9600E+02
    -14.043  0.0000E+00  0.9600E+02
    -13.935  0.0000E+00  0.9600E+02
    -13.827  0.0000E+00  0.9600E+02
    -13.719  0.0000E+00  0.9600E+02
    -13.611  0.0000E+00  0.9600E+02
    -13.503  0.0000E+00  0.9600E+02
    -13.395  0.0000E+00  0.9600E+02
    -13.287  0.0000E+00  0.1120E+03
    -13.179  0.0000E+00  0.1120E+03
    -13.071  0.0000E+00  0.1120E+03
    -12.964  0.0000E+00  0.1120E+03
    -12.856  0.0000E+00  0.1120E+03
    -12.748  0.0000E+00  0.1120E+03
    -12.640  0.0000E+00  0.1120E+03
    -12.532  0.0000E+00  0.1120E+03
    -12.424  0.0000E+00  0.1120E+03
    -12.316  0.2746E+01  0.1125E+03
    -12.208  0.2286E-14  0.1143E+03
    -12.100  0.4128E+01  0.1195E+03
    -11.992  0.1450E+01  0.1254E+03
    -11.885  0.2746E+01  0.1291E+03
    -11.777  0.6354E+01  0.1351E+03
    -11.669  0.0000E+00  0.1400E+03
    -11.561  0.0000E+00  0.1442E+03
    -11.453  0.8235E+01  0.1541E+03
    -11.345  0.1373E+01  0.1596E+03
    -11.237  0.0000E+00  0.1600E+03
    -11.129  0.0000E+00  0.1600E+03
    -11.021  0.0000E+00  0.1600E+03
    -10.913  0.0000E+00  0.1600E+03
    -10.805  0.0000E+00  0.1600E+03
    -10.698  0.0000E+00  0.1600E+03
    -10.590  0.0000E+00  0.1600E+03
    -10.482  0.0000E+00  0.1600E+03
    -10.374  0.0000E+00  0.1600E+03
    -10.266  0.0000E+00  0.1600E+03
    -10.158  0.0000E+00  0.1600E+03
    -10.050  0.0000E+00  0.1600E+03
     -9.942  0.0000E+00  0.1600E+03
     -9.834  0.0000E+00  0.1600E+03
     -9.726  0.0000E+00  0.1600E+03
     -9.619  0.0000E+00  0.1600E+03
     -9.511  0.0000E+00  0.1600E+03
     -9.403  0.0000E+00  0.1600E+03
     -9.295  0.0000E+00  0.1600E+03
     -9.187  0.1407E+02  0.1732E+03
     -9.079  0.0000E+00  0.1920E+03
     -8.971  0.0000E+00  0.1920E+03
     -8.863  0.0000E+00  0.1920E+03
     -8.755  0.0000E+00  0.1920E+03
     -8.647  0.0000E+00  0.1920E+03
     -8.540  0.0000E+00  0.1920E+03
     -8.432  0.0000E+00  0.1920E+03
     -8.324  0.0000E+00  0.1920E+03
     -8.216  0.0000E+00  0.1920E+03
     -8.108  0.0000E+00  0.1920E+03
     -8.000  0.0000E+00  0.1921E+03
     -7.892  0.1373E+01  0.1922E+03
     -7.784  0.0000E+00  0.1925E+03
     -7.676  0.0000E+00  0.1934E+03
     -7.568  0.0000E+00  0.1941E+03
     -7.460  0.1373E+01  0.1946E+03
     -7.353  0.0000E+00  0.1964E+03
     -7.245  0.1373E+01  0.1987E+03
     -7.137  0.6865E+01  0.2003E+03
     -7.029  0.2746E+01  0.2166E+03
     -6.921  0.1373E+01  0.2191E+03
     -6.813  0.2746E+01  0.2201E+03
     -6.705  0.0000E+00  0.2215E+03
     -6.597  0.1355E+01  0.2224E+03
     -6.489  0.2746E+01  0.2229E+03
     -6.381  0.0000E+00  0.2235E+03
     -6.274  0.3970E-03  0.2238E+03
     -6.166  0.0000E+00  0.2239E+03
     -6.058  0.0000E+00  0.2240E+03
     -5.950  0.0000E+00  0.2240E+03
     -5.842  0.0000E+00  0.2240E+03
     -5.734  0.0000E+00  0.2240E+03
     -5.626  0.0000E+00  0.2240E+03
     -5.518  0.0000E+00  0.2240E+03
     -5.410  0.0000E+00  0.2240E+03
     -5.302  0.0000E+00  0.2240E+03
     -5.195  0.0000E+00  0.2240E+03
     -5.087  0.0000E+00  0.2240E+03
     -4.979  0.0000E+00  0.2240E+03
     -4.871  0.0000E+00  0.2240E+03
     -4.763  0.3652E+02  0.2508E+03
     -4.655  0.0000E+00  0.2560E+03
     -4.547  0.0000E+00  0.2560E+03
     -4.439  0.0000E+00  0.2560E+03
     -4.331  0.0000E+00  0.2560E+03
     -4.223  0.0000E+00  0.2560E+03
     -4.115  0.0000E+00  0.2560E+03
     -4.008  0.0000E+00  0.2560E+03
     -3.900  0.0000E+00  0.2560E+03
     -3.792  0.0000E+00  0.2560E+03
     -3.684  0.0000E+00  0.2560E+03
     -3.576  0.0000E+00  0.2560E+03
     -3.468  0.0000E+00  0.2560E+03
     -3.360  0.0000E+00  0.2560E+03
     -3.252  0.0000E+00  0.2560E+03
     -3.144  0.0000E+00  0.2560E+03
     -3.036  0.0000E+00  0.2560E+03
     -2.929  0.0000E+00  0.2560E+03
     -2.821  0.3241E+00  0.2560E+03
     -2.713  0.1373E+01  0.2584E+03
     -2.605  0.2004E+01  0.2615E+03
     -2.497  0.1303E-02  0.2636E+03
     -2.389  0.2609E-11  0.2659E+03
     -2.281  0.8195E+00  0.2685E+03
     -2.173  0.0000E+00  0.2724E+03
     -2.065  0.2704E+01  0.2763E+03
     -1.957  0.5626E+00  0.2787E+03
     -1.850  0.2746E+01  0.2799E+03
     -1.742  0.0000E+00  0.2800E+03
     -1.634  0.6865E+00  0.2806E+03
     -1.526  0.1540E-02  0.2844E+03
     -1.418  0.1410E+01  0.2910E+03
     -1.310  0.3496E-06  0.2992E+03
     -1.202  0.2981E+01  0.3030E+03
     -1.094  0.2746E+01  0.3073E+03
     -0.986  0.2619E+01  0.3123E+03
     -0.878  0.4119E+01  0.3181E+03
     -0.770  0.4119E+01  0.3253E+03
     -0.663  0.4874E+01  0.3330E+03
     -0.555  0.1373E+01  0.3379E+03
     -0.447  0.2746E+01  0.3481E+03
     -0.339  0.7665E+01  0.3563E+03
     -0.231  0.0000E+00  0.3644E+03
     -0.123  0.6870E+01  0.3736E+03
     -0.015  0.2750E+01  0.3802E+03
      0.093  0.5492E+01  0.3884E+03
      0.201  0.6006E+01  0.3918E+03
      0.309  0.1373E+01  0.3939E+03
      0.416  0.0000E+00  0.3951E+03
      0.524  0.4632E+00  0.3968E+03
      0.632  0.6865E+00  0.3984E+03
      0.740  0.0000E+00  0.3993E+03
      0.848  0.0000E+00  0.3993E+03
      0.956  0.0000E+00  0.3998E+03
      1.064  0.0000E+00  0.3999E+03
      1.172  0.6865E+00  0.4000E+03
      1.280  0.0000E+00  0.4000E+03
      1.388  0.0000E+00  0.4000E+03
      1.495  0.0000E+00  0.4000E+03
      1.603  0.0000E+00  0.4000E+03
      1.711  0.0000E+00  0.4000E+03
      1.819  0.0000E+00  0.4000E+03
      1.927  0.0000E+00  0.4000E+03
      2.035  0.0000E+00  0.4000E+03
      2.143  0.0000E+00  0.4000E+03
      2.251  0.0000E+00  0.4000E+03
      2.359  0.0000E+00  0.4000E+03
      2.467  0.0000E+00  0.4000E+03
      2.575  0.0000E+00  0.4000E+03
      2.682  0.0000E+00  0.4000E+03
      2.790  0.0000E+00  0.4000E+03
      2.898  0.0000E+00  0.4000E+03
      3.006  0.0000E+00  0.4000E+03
      3.114  0.0000E+00  0.4000E+03
      3.222  0.0000E+00  0.4000E+03
      3.330  0.2746E+01  0.4005E+03
      3.438  0.0000E+00  0.4007E+03
      3.546  0.2746E+01  0.4024E+03
      3.654  0.0000E+00  0.4033E+03
      3.761  0.1505E+01  0.4044E+03
      3.869  0.1373E+01  0.4061E+03
      3.977  0.6865E+01  0.4074E+03
      4.085  0.1364E+01  0.4083E+03
      4.193  0.2746E+01  0.4090E+03
      4.301  0.0000E+00  0.4096E+03
      4.409  0.0000E+00  0.4108E+03
      4.517  0.4288E+00  0.4131E+03
      4.625  0.8827E-07  0.4150E+03
      4.733  0.1667E+00  0.4169E+03
      4.840  0.1495E+00  0.4200E+03
      4.948  0.0000E+00  0.4227E+03
      5.056  0.0000E+00  0.4239E+03
      5.164  0.0000E+00  0.4240E+03
      5.272  0.0000E+00  0.4240E+03
      5.380  0.0000E+00  0.4240E+03
      5.488  0.1257E+00  0.4240E+03
      5.596  0.0000E+00  0.4241E+03
      5.704  0.0000E+00  0.4247E+03
      5.812  0.0000E+00  0.4270E+03
      5.919  0.2746E+01  0.4295E+03
      6.027  0.6871E+01  0.4338E+03
      6.135  0.2848E+01  0.4376E+03
      6.243  0.0000E+00  0.4394E+03
      6.351  0.5285E-02  0.4419E+03
      6.459  0.2764E-03  0.4448E+03
      6.567  0.2746E+01  0.4481E+03
      6.675  0.6077E+01  0.4522E+03
      6.783  0.5493E+01  0.4575E+03
      6.891  0.1373E+01  0.4618E+03
      6.999  0.2764E+01  0.4662E+03
      7.106  0.2070E+01  0.4724E+03
      7.214  0.5265E+01  0.4761E+03
      7.322  0.0000E+00  0.4799E+03
      7.430  0.2995E+01  0.4835E+03
      7.538  0.2733E+01  0.4883E+03
      7.646  0.4210E+01  0.4911E+03
      7.754  0.8005E+00  0.4947E+03
      7.862  0.1672E+00  0.4984E+03
      7.970  0.1827E-06  0.5018E+03
      8.078  0.1254E+01  0.5047E+03
      8.185  0.1373E+01  0.5073E+03
      8.293  0.2131E-09  0.5097E+03
      8.401  0.0000E+00  0.5113E+03
      8.509  0.1762E-04  0.5119E+03
      8.617  0.0000E+00  0.5120E+03
      8.725  0.0000E+00  0.5120E+03
      8.833  0.0000E+00  0.5120E+03
      8.941  0.0000E+00  0.5120E+03
      9.049  0.0000E+00  0.5120E+03
      9.157  0.0000E+00  0.5120E+03
      9.264  0.0000E+00  0.5120E+03
      9.372  0.0000E+00  0.5120E+03
      9.480  0.0000E+00  0.5120E+03
      9.588  0.0000E+00  0.5120E+03
      9.696  0.0000E+00  0.5120E+03
      9.804  0.0000E+00  0.5120E+03
      9.912  0.0000E+00  0.5120E+03
     10.020  0.0000E+00  0.5120E+03
