       N       E                     dE             d eps       ncg     rms          ort
DAV:   1     0.285453252544E+05    0.28545E+05   -0.12963E+06  3584   0.486E+03
DAV:   2     0.716433141832E+04   -0.21381E+05   -0.20699E+05  3584   0.170E+03
DAV:   3     0.143213014101E+04   -0.57322E+04   -0.55670E+04  3584   0.463E+02
DAV:   4     0.350119005863E+03   -0.10820E+04   -0.10519E+04  3584   0.189E+02
DAV:   5     0.269555393487E+03   -0.80564E+02   -0.79914E+02  3584   0.497E+01
SDA:   6    -0.456618601284E+03   -0.72617E+03   -0.79914E+02  3584   0.906E+02 0.000E+00
CGA:   7    -0.470752412383E+03   -0.14134E+02   -0.14203E+02  3584   0.285E+02 0.399E+00
CGA:   8    -0.476374073856E+03   -0.56217E+01   -0.56219E+01  3584   0.590E+01 0.122E+00
CGA:   9    -0.478414739828E+03   -0.20407E+01   -0.20341E+01  3584   0.196E+01 0.365E-01
CGA:  10    -0.479071110842E+03   -0.65637E+00   -0.65558E+00  3584   0.713E+00 0.480E-02
CGA:  11    -0.479229183855E+03   -0.15807E+00   -0.15807E+00  3584   0.292E+00 0.763E-03
CGA:  12    -0.479305419788E+03   -0.76236E-01   -0.76274E-01  3584   0.712E-01-0.879E-03
CGA:  13    -0.479329141416E+03   -0.23722E-01   -0.23752E-01  3584   0.211E-01-0.237E-03
CGA:  14    -0.479336609589E+03   -0.74682E-02   -0.74855E-02  3584   0.652E-02-0.123E-03
CGA:  15    -0.479338764712E+03   -0.21551E-02   -0.21710E-02  3584   0.301E-02-0.146E-03
CGA:  16    -0.479339432451E+03   -0.66774E-03   -0.66803E-03  3584   0.130E-02 0.504E-04
CGA:  17    -0.479339852225E+03   -0.41977E-03   -0.42534E-03  3584   0.463E-03-0.619E-04
CGA:  18    -0.479340008699E+03   -0.15647E-03   -0.15624E-03  3584   0.172E-03 0.211E-05
CGA:  19    -0.479340063709E+03   -0.55010E-04   -0.54561E-04  3584   0.651E-04 0.620E-05
CGA:  20    -0.479340086844E+03   -0.23135E-04   -0.23370E-04  3584   0.337E-04-0.233E-05
CGA:  21    -0.479340093840E+03   -0.69959E-05   -0.71650E-05  3584   0.124E-04 0.552E-05
CGA:  22    -0.479340098685E+03   -0.48449E-05   -0.50084E-05  3584   0.749E-05-0.170E-05
CGA:  23    -0.479340100527E+03   -0.18426E-05   -0.18446E-05  3584   0.321E-05-0.632E-07
CGA:  24    -0.479340101033E+03   -0.50573E-06   -0.56752E-06  3584   0.120E-05 0.795E-06
CGA:  25    -0.479340101498E+03   -0.46499E-06   -0.49456E-06  3584   0.911E-06-0.382E-06
CGA:  26    -0.479340101671E+03   -0.17340E-06   -0.18476E-06  3584   0.702E-06-0.272E-06
CGA:  27    -0.479340101778E+03   -0.10617E-06   -0.10335E-06  3584   0.396E-06-0.568E-07
CGA:  28    -0.479340100831E+03    0.94653E-06   -0.40481E-06  3584   0.643E-05-0.158E-05
CGA:  29    -0.479340101705E+03   -0.87368E-06   -0.99433E-06  3584   0.110E-05 0.838E-06
CGA:  30    -0.479340102002E+03   -0.29689E-06   -0.29500E-06  3584   0.236E-06-0.346E-07
CGA:  31    -0.479340101998E+03    0.35216E-08   -0.22091E-07  3584   0.110E-06 0.133E-06
CGA:  32    -0.479340102004E+03   -0.61009E-08   -0.14924E-07  3584   0.479E-07 0.616E-07
CGA:  33    -0.479340102032E+03   -0.28143E-07    0.80122E-07  3584   0.278E-07 0.301E-07
CGA:  34    -0.479340102029E+03    0.36634E-08   -0.16151E-08  3584   0.231E-07 0.252E-07
   1 F= -.47934010E+03 E0= -.47934010E+03  d E =0.000000E+00
