 vasp.5.4.1 24Jun15 (build Nov 25 2015 16:01:35) complex                        
  
 executed on         CrayXC-Intel date 2016.06.26  00:15:53
 running on 1536 total cores
 distrk:  each k-point on  768 cores,    2 groups
 distr:  one band on NCORES_PER_BAND=  24 cores,   32 groups


--------------------------------------------------------------------------------------------------------


 INCAR:
 POTCAR:    PAW_PBE C 08Apr2002                   
 POTCAR:    PAW_PBE N 08Apr2002                   
 POTCAR:    PAW_PBE H 15Jun2001                   
 POTCAR:    PAW_PBE Pb_d 06Sep2000                
 POTCAR:    PAW_PBE I 08Apr2002                   

 ----------------------------------------------------------------------------- 
|                                                                             |
|           W    W    AA    RRRRR   N    N  II  N    N   GGGG   !!!           |
|           W    W   A  A   R    R  NN   N  II  NN   N  G    G  !!!           |
|           W    W  A    A  R    R  N N  N  II  N N  N  G       !!!           |
|           W WW W  AAAAAA  RRRRR   N  N N  II  N  N N  G  GGG   !            |
|           WW  WW  A    A  R   R   N   NN  II  N   NN  G    G                |
|           W    W  A    A  R    R  N    N  II  N    N   GGGG   !!!           |
|                                                                             |
|      You have enabled k-point parallelism (KPAR>1).                         |
|      This developmental code was originally  written by Paul Kent at ORNL,  |
|      and carefully double checked in Vienna.                                |
|      GW as well as linear response parallelism added by Martijn Marsman     |
|      and Georg Kresse.                                                      |
|      Carefully verify results versus KPAR=1.                                |
|      Report problems to Paul Kent and Vienna.                               |
|                                                                             |
 ----------------------------------------------------------------------------- 

 POTCAR:    PAW_PBE C 08Apr2002                   
   VRHFIN =C: s2p2                                                              
   LEXCH  = PE                                                                  
   EATOM  =   147.1560 eV,   10.8157 Ry                                         
                                                                                
   TITEL  = PAW_PBE C 08Apr2002                                                 
   LULTRA =        F    use ultrasoft PP ?                                      
   IUNSCR =        1    unscreen: 0-lin 1-nonlin 2-no                           
   RPACOR =    1.200    partial core radius                                     
   POMASS =   12.011; ZVAL   =    4.000    mass and valenz                      
   RCORE  =    1.500    outmost cutoff radius                                   
   RWIGS  =    1.630; RWIGS  =    0.863    wigner-seitz radius (au A)           
   ENMAX  =  400.000; ENMIN  =  300.000 eV                                      
   ICORE  =        2    local potential                                         
   LCOR   =        T    correct aug charges                                     
   LPAW   =        T    paw PP                                                  
   EAUG   =  644.873                                                            
   DEXC   =    0.000                                                            
   RMAX   =    1.529    core radius for proj-oper                               
   RAUG   =    1.300    factor for augmentation sphere                          
   RDEP   =    1.501    radius for radial grids                                 
   RDEPT  =    1.300    core radius for aug-charge                              
                                                                                
   Atomic configuration                                                         
    4 entries                                                                   
     n  l   j            E        occ.                                          
     1  0  0.50      -273.3789   2.0000                                         
     2  0  0.50       -13.7508   2.0000                                         
     2  1  0.50        -5.2854   2.0000                                         
     3  2  1.50        -5.4423   0.0000                                         
   Description                                                                  
     l       E           TYP  RCUT    TYP  RCUT                                 
     0    -13.7508458     23  1.200                                             
     0     -8.2022199     23  1.200                                             
     1     -5.2854383     23  1.500                                             
     1     34.0145650     23  1.500                                             
     2     -5.4423304      7  1.500                                             
  local pseudopotential read in
  partial core-charges read in
  partial kinetic energy density read in
  atomic valenz-charges read in
  non local Contribution for L=           0  read in
    real space projection operators read in
  non local Contribution for L=           0  read in
    real space projection operators read in
  non local Contribution for L=           1  read in
    real space projection operators read in
  non local Contribution for L=           1  read in
    real space projection operators read in
    PAW grid and wavefunctions read in
 
   number of l-projection  operators is LMAX  =           4
   number of lm-projection operators is LMMAX =           8
 
 POTCAR:    PAW_PBE N 08Apr2002                   
   VRHFIN =N: s2p3                                                              
   LEXCH  = PE                                                                  
   EATOM  =   264.5486 eV,   19.4438 Ry                                         
                                                                                
   TITEL  = PAW_PBE N 08Apr2002                                                 
   LULTRA =        F    use ultrasoft PP ?                                      
   IUNSCR =        1    unscreen: 0-lin 1-nonlin 2-no                           
   RPACOR =    1.200    partial core radius                                     
   POMASS =   14.001; ZVAL   =    5.000    mass and valenz                      
   RCORE  =    1.500    outmost cutoff radius                                   
   RWIGS  =    1.400; RWIGS  =    0.741    wigner-seitz radius (au A)           
   ENMAX  =  400.000; ENMIN  =  300.000 eV                                      
   ICORE  =        2    local potential                                         
   LCOR   =        T    correct aug charges                                     
   LPAW   =        T    paw PP                                                  
   EAUG   =  627.112                                                            
   DEXC   =    0.000                                                            
   RMAX   =    1.529    core radius for proj-oper                               
   RAUG   =    1.300    factor for augmentation sphere                          
   RDEP   =    1.514    radius for radial grids                                 
   RDEPT  =    1.338    core radius for aug-charge                              
                                                                                
   Atomic configuration                                                         
    4 entries                                                                   
     n  l   j            E        occ.                                          
     1  0  0.50      -384.7179   2.0000                                         
     2  0  0.50       -18.5828   2.0000                                         
     2  1  0.50        -7.0898   3.0000                                         
     3  2  1.50        -6.8029   0.0000                                         
   Description                                                                  
     l       E           TYP  RCUT    TYP  RCUT                                 
     0    -18.5828119     23  1.200                                             
     0    -13.5018863     23  1.200                                             
     1     -7.0897853     23  1.500                                             
     1      9.5240782     23  1.500                                             
     2     -6.8029130      7  1.500                                             
  local pseudopotential read in
  partial core-charges read in
  partial kinetic energy density read in
  atomic valenz-charges read in
  non local Contribution for L=           0  read in
    real space projection operators read in
  non local Contribution for L=           0  read in
    real space projection operators read in
  non local Contribution for L=           1  read in
    real space projection operators read in
  non local Contribution for L=           1  read in
    real space projection operators read in
    PAW grid and wavefunctions read in
 
   number of l-projection  operators is LMAX  =           4
   number of lm-projection operators is LMMAX =           8
 
 POTCAR:    PAW_PBE H 15Jun2001                   
   VRHFIN =H: ultrasoft test                                                    
   LEXCH  = PE                                                                  
   EATOM  =    12.4884 eV,    0.9179 Ry                                         
                                                                                
   TITEL  = PAW_PBE H 15Jun2001                                                 
   LULTRA =        F    use ultrasoft PP ?                                      
   IUNSCR =        0    unscreen: 0-lin 1-nonlin 2-no                           
   RPACOR =    0.000    partial core radius                                     
   POMASS =    1.000; ZVAL   =    1.000    mass and valenz                      
   RCORE  =    1.100    outmost cutoff radius                                   
   RWIGS  =    0.700; RWIGS  =    0.370    wigner-seitz radius (au A)           
   ENMAX  =  250.000; ENMIN  =  200.000 eV                                      
   RCLOC  =    0.701    cutoff for local pot                                    
   LCOR   =        T    correct aug charges                                     
   LPAW   =        T    paw PP                                                  
   EAUG   =  400.000                                                            
   RMAX   =    1.123    core radius for proj-oper                               
   RAUG   =    1.200    factor for augmentation sphere                          
   RDEP   =    1.112    radius for radial grids                                 
   RDEPT  =    0.926    core radius for aug-charge                              
                                                                                
   Atomic configuration                                                         
    2 entries                                                                   
     n  l   j            E        occ.                                          
     1  0  0.50        -6.4927   1.0000                                         
     2  1  0.50        -3.4015   0.0000                                         
   Description                                                                  
     l       E           TYP  RCUT    TYP  RCUT                                 
     0     -6.4927494     23  1.100                                             
     0      6.8029130     23  1.100                                             
     1     -4.0817478     23  1.100                                             
  local pseudopotential read in
  atomic valenz-charges read in
  non local Contribution for L=           0  read in
    real space projection operators read in
  non local Contribution for L=           0  read in
    real space projection operators read in
  non local Contribution for L=           1  read in
    real space projection operators read in
    PAW grid and wavefunctions read in
 
   number of l-projection  operators is LMAX  =           3
   number of lm-projection operators is LMMAX =           5
 
 POTCAR:    PAW_PBE Pb_d 06Sep2000                
   VRHFIN =Pb:                                                                  
   LEXCH  = PE                                                                  
   EATOM  =  1661.6185 eV,  122.1255 Ry                                         
                                                                                
   TITEL  = PAW_PBE Pb_d 06Sep2000                                              
   LULTRA =        F    use ultrasoft PP ?                                      
   IUNSCR =        1    unscreen: 0-lin 1-nonlin 2-no                           
   RPACOR =    2.200    partial core radius                                     
   POMASS =  207.200; ZVAL   =   14.000    mass and valenz                      
   RCORE  =    2.500    outmost cutoff radius                                   
   RWIGS  =    3.260; RWIGS  =    1.725    wigner-seitz radius (au A)           
   ENMAX  =  237.835; ENMIN  =  178.376 eV                                      
   ICORE  =        3    local potential                                         
   LCOR   =        T    correct aug charges                                     
   LPAW   =        T    paw PP                                                  
   EAUG   =  391.914                                                            
   DEXC   =    0.000                                                            
   RMAX   =    2.565    core radius for proj-oper                               
   RAUG   =    1.300    factor for augmentation sphere                          
   RDEP   =    2.643    radius for radial grids                                 
   RDEPT  =    2.092    core radius for aug-charge                              
                                                                                
   Atomic configuration                                                         
   16 entries                                                                   
     n  l   j            E        occ.                                          
     1  0  0.50    -88091.8466   2.0000                                         
     2  0  0.50    -15753.4197   2.0000                                         
     2  1  1.50    -13508.1797   6.0000                                         
     3  0  0.50     -3781.7194   2.0000                                         
     3  1  1.50     -3138.2529   6.0000                                         
     3  2  2.50     -2483.2977  10.0000                                         
     4  0  0.50      -856.2895   2.0000                                         
     4  1  1.50      -645.4942   6.0000                                         
     4  2  2.50      -401.8768  10.0000                                         
     4  3  3.50      -132.9059  14.0000                                         
     5  0  0.50      -144.0950   2.0000                                         
     5  1  1.50       -85.7879   6.0000                                         
     5  2  2.50       -21.1769  10.0000                                         
     6  0  0.50       -12.0372   2.0000                                         
     6  1  1.50        -3.4971   2.0000                                         
     5  3  2.50        -2.7212   0.0000                                         
   Description                                                                  
     l       E           TYP  RCUT    TYP  RCUT                                 
     2    -21.1768523     23  2.500                                             
     2      1.3605826     23  2.500                                             
     0    -12.0371562     23  2.500                                             
     0     13.6058260     23  2.500                                             
     1     -3.4971339     23  2.500                                             
     1     13.6058260     23  2.500                                             
     3     -1.3605826      7  2.500                                             
  local pseudopotential read in
  partial core-charges read in
  partial kinetic energy density read in
  atomic valenz-charges read in
  non local Contribution for L=           2  read in
    real space projection operators read in
  non local Contribution for L=           2  read in
    real space projection operators read in
  non local Contribution for L=           0  read in
    real space projection operators read in
  non local Contribution for L=           0  read in
    real space projection operators read in
  non local Contribution for L=           1  read in
    real space projection operators read in
  non local Contribution for L=           1  read in
    real space projection operators read in
    PAW grid and wavefunctions read in
 
   number of l-projection  operators is LMAX  =           6
   number of lm-projection operators is LMMAX =          18
 
 POTCAR:    PAW_PBE I 08Apr2002                   
   VRHFIN =I : s2p5                                                             
   LEXCH  = PE                                                                  
   EATOM  =   315.8678 eV,   23.2156 Ry                                         
                                                                                
   TITEL  = PAW_PBE I 08Apr2002                                                 
   LULTRA =        F    use ultrasoft PP ?                                      
   IUNSCR =        1    unscreen: 0-lin 1-nonlin 2-no                           
   RPACOR =    2.200    partial core radius                                     
   POMASS =  126.904; ZVAL   =    7.000    mass and valenz                      
   RCORE  =    2.300    outmost cutoff radius                                   
   RWIGS  =    2.810; RWIGS  =    1.487    wigner-seitz radius (au A)           
   ENMAX  =  175.647; ENMIN  =  131.735 eV                                      
   ICORE  =        3    local potential                                         
   LCOR   =        T    correct aug charges                                     
   LPAW   =        T    paw PP                                                  
   EAUG   =  370.139                                                            
   DEXC   =    0.000                                                            
   RMAX   =    2.359    core radius for proj-oper                               
   RAUG   =    1.300    factor for augmentation sphere                          
   RDEP   =    2.392    radius for radial grids                                 
   RDEPT  =    2.170    core radius for aug-charge                              
                                                                                
   Atomic configuration                                                         
   13 entries                                                                   
     n  l   j            E        occ.                                          
     1  0  0.50    -32976.3739   2.0000                                         
     2  0  0.50     -5094.5933   2.0000                                         
     2  1  1.50     -4572.0131   6.0000                                         
     3  0  0.50     -1028.2813   2.0000                                         
     3  1  1.50      -859.0250   6.0000                                         
     3  2  2.50      -605.7620  10.0000                                         
     4  0  0.50      -180.5540   2.0000                                         
     4  1  1.50      -127.5306   6.0000                                         
     4  2  2.50       -50.2720  10.0000                                         
     5  0  0.50       -17.4058   2.0000                                         
     5  1  0.50        -7.0851   5.0000                                         
     5  2  1.50        -7.0750   0.0000                                         
     4  3  2.50        -7.0750   0.0000                                         
   Description                                                                  
     l       E           TYP  RCUT    TYP  RCUT                                 
     0    -17.4058016     23  2.300                                             
     0    -18.7663842     23  2.300                                             
     1     -7.0850686     23  2.300                                             
     1     -4.2150896     23  2.300                                             
     2     -7.0750295     23  2.300                                             
     3     -1.3605826     23  2.300                                             
  local pseudopotential read in
  partial core-charges read in
  partial kinetic energy density read in
  atomic valenz-charges read in
  non local Contribution for L=           0  read in
    real space projection operators read in
  non local Contribution for L=           0  read in
    real space projection operators read in
  non local Contribution for L=           1  read in
    real space projection operators read in
  non local Contribution for L=           1  read in
    real space projection operators read in
  non local Contribution for L=           2  read in
    real space projection operators read in
    PAW grid and wavefunctions read in
 
   number of l-projection  operators is LMAX  =           5
   number of lm-projection operators is LMMAX =          13
 

 ----------------------------------------------------------------------------- 
|                                                                             |
|  ADVICE TO THIS USER RUNNING 'VASP/VAMP'   (HEAR YOUR MASTER'S VOICE ...):  |
|                                                                             |
|      You have a (more or less) 'large supercell' and for larger cells       |
|      it might be more efficient to use real space projection opertators     |
|      So try LREAL= Auto  in the INCAR   file.                               |
|      Mind: At the moment your POTCAR file does not contain real space       |
|       projectors, and has to be modified,  BUT if you                       |
|      want to do an extremely  accurate calculation you might also keep the  |
|      reciprocal projection scheme          (i.e. LREAL=.FALSE.)             |
|                                                                             |
 ----------------------------------------------------------------------------- 

  PAW_PBE C 08Apr2002                   :
 energy of atom  1       EATOM= -147.1560
 kinetic energy error for atom=    0.0032 (will be added to EATOM!!)
  PAW_PBE N 08Apr2002                   :
 energy of atom  2       EATOM= -264.5486
 kinetic energy error for atom=    0.0061 (will be added to EATOM!!)
  PAW_PBE H 15Jun2001                   :
 energy of atom  3       EATOM=  -12.4884
 kinetic energy error for atom=    0.0002 (will be added to EATOM!!)
  PAW_PBE Pb_d 06Sep2000                :
 energy of atom  4       EATOM=-1661.6185
 kinetic energy error for atom=    0.0012 (will be added to EATOM!!)
  PAW_PBE I 08Apr2002                   :
 energy of atom  5       EATOM= -315.8678
 kinetic energy error for atom=    0.0003 (will be added to EATOM!!)
 
 
 POSCAR: C N H Pb I                              
  positions in direct lattice
  No initial velocities read in
 exchange correlation table for  LEXCH =        8
   RHO(1)=    0.500       N(1)  =     2000
   RHO(2)=  100.500       N(2)  =     4000
 


--------------------------------------------------------------------------------------------------------


 ion  position               nearest neighbor table
   1  0.199  0.250  0.225-  25 1.10  33 1.10  17 1.10   9 1.48
   2  0.695  0.250  0.232-  26 1.10  34 1.10  18 1.10  10 1.48
   3  0.195  0.750  0.232-  27 1.10  35 1.10  19 1.10  11 1.48
   4  0.699  0.750  0.225-  28 1.10  36 1.10  20 1.10  12 1.48
   5  0.199  0.250  0.725-  29 1.10  37 1.10  21 1.10  13 1.48
   6  0.695  0.250  0.732-  30 1.10  38 1.10  22 1.10  14 1.48
   7  0.195  0.750  0.732-  31 1.10  39 1.10  23 1.10  15 1.48
   8  0.699  0.750  0.725-  32 1.10  40 1.10  24 1.10  16 1.48
   9  0.305  0.250  0.274-  57 1.04  41 1.05  49 1.05   1 1.48
  10  0.804  0.250  0.274-  58 1.04  42 1.05  50 1.05   2 1.48
  11  0.304  0.750  0.274-  59 1.04  43 1.05  51 1.05   3 1.48
  12  0.805  0.750  0.274-  60 1.04  44 1.05  52 1.05   4 1.48
  13  0.305  0.250  0.774-  61 1.04  45 1.05  53 1.05   5 1.48
  14  0.804  0.250  0.774-  62 1.04  46 1.05  54 1.05   6 1.48
  15  0.304  0.750  0.774-  63 1.04  47 1.05  55 1.05   7 1.48
  16  0.805  0.750  0.774-  64 1.04  48 1.05  56 1.05   8 1.48
  17  0.210  0.250  0.140-   1 1.10
  18  0.700  0.250  0.146-   2 1.10
  19  0.200  0.750  0.146-   3 1.10
  20  0.710  0.750  0.140-   4 1.10
  21  0.210  0.250  0.640-   5 1.10
  22  0.700  0.250  0.646-   6 1.10
  23  0.200  0.750  0.646-   7 1.10
  24  0.710  0.750  0.640-   8 1.10
  25  0.156  0.322  0.251-   1 1.10
  26  0.653  0.322  0.260-   2 1.10
  27  0.153  0.822  0.260-   3 1.10
  28  0.656  0.822  0.251-   4 1.10
  29  0.156  0.322  0.751-   5 1.10
  30  0.653  0.322  0.760-   6 1.10
  31  0.153  0.822  0.760-   7 1.10
  32  0.656  0.822  0.751-   8 1.10
  33  0.156  0.177  0.251-   1 1.10
  34  0.653  0.177  0.261-   2 1.10
  35  0.153  0.677  0.261-   3 1.10
  36  0.656  0.677  0.251-   4 1.10
  37  0.156  0.177  0.751-   5 1.10
  38  0.653  0.177  0.761-   6 1.10
  39  0.153  0.677  0.761-   7 1.10
  40  0.656  0.677  0.751-   8 1.10
  41  0.349  0.318  0.252-   9 1.05
  42  0.847  0.318  0.249-  10 1.05
  43  0.347  0.818  0.249-  11 1.05
  44  0.849  0.818  0.252-  12 1.05
  45  0.349  0.318  0.752-  13 1.05
  46  0.847  0.318  0.749-  14 1.05
  47  0.347  0.818  0.749-  15 1.05
  48  0.849  0.818  0.752-  16 1.05
  49  0.350  0.182  0.253-   9 1.05
  50  0.847  0.182  0.249-  10 1.05
  51  0.347  0.682  0.249-  11 1.05
  52  0.850  0.682  0.253-  12 1.05
  53  0.350  0.182  0.753-  13 1.05
  54  0.847  0.182  0.749-  14 1.05
  55  0.347  0.682  0.749-  15 1.05
  56  0.850  0.682  0.753-  16 1.05
  57  0.301  0.250  0.356-   9 1.04
  58  0.806  0.250  0.356-  10 1.04
  59  0.306  0.750  0.356-  11 1.04
  60  0.801  0.750  0.356-  12 1.04
  61  0.301  0.250  0.856-  13 1.04
  62  0.806  0.250  0.856-  14 1.04
  63  0.306  0.750  0.856-  15 1.04
  64  0.801  0.750  0.856-  16 1.04
  65  0.472  0.500  0.489-  90 3.08  85 3.14  87 3.15  77 3.17  73 3.22  89 3.25
  66  0.972  0.500  0.489-  89 3.08  88 3.14  86 3.15  78 3.17  74 3.22  90 3.25
  67  0.472  1.000  0.489-  92 3.08  85 3.14  87 3.15  79 3.17  75 3.22  91 3.25
  68  0.972  0.000  0.489-  91 3.08  88 3.14  86 3.15  80 3.17  76 3.22  92 3.25
  69  0.472  0.500  0.989-  94 3.08  81 3.14  83 3.15  73 3.17  77 3.22  93 3.25
  70  0.972  0.500  0.989-  93 3.08  84 3.14  82 3.15  74 3.17  78 3.22  94 3.25
  71  0.472  1.000  0.989-  96 3.08  81 3.14  83 3.15  75 3.17  79 3.22  95 3.25
  72  0.972  0.000  0.989-  95 3.08  84 3.14  82 3.15  76 3.17  80 3.22  96 3.25
  73  0.455  0.500  0.238-  69 3.17  65 3.22
  74  0.955  0.500  0.238-  70 3.17  66 3.22
  75  0.455  1.000  0.238-  71 3.17  67 3.22
  76  0.955  0.000  0.238-  72 3.17  68 3.22
  77  0.455  0.500  0.738-  65 3.17  69 3.22
  78  0.955  0.500  0.738-  66 3.17  70 3.22
  79  0.455  1.000  0.738-  67 3.17  71 3.22
  80  0.955  0.000  0.738-  68 3.17  72 3.22
  81  0.457  0.250  0.011-  71 3.14  69 3.14
  82  0.943  0.250  0.013-  72 3.15  70 3.15
  83  0.443  0.750  0.013-  69 3.15  71 3.15
  84  0.957  0.750  0.011-  70 3.14  72 3.14
  85  0.457  0.250  0.511-  67 3.14  65 3.14
  86  0.943  0.250  0.513-  68 3.15  66 3.15
  87  0.443  0.750  0.513-  65 3.15  67 3.15
  88  0.957  0.750  0.511-  66 3.14  68 3.14
  89  0.216  0.492  0.461-  66 3.08  65 3.25
  90  0.716  0.508  0.461-  65 3.08  66 3.25
  91  0.216  0.008  0.461-  68 3.08  67 3.25
  92  0.716  0.992  0.461-  67 3.08  68 3.25
  93  0.216  0.492  0.961-  70 3.08  69 3.25
  94  0.716  0.508  0.961-  69 3.08  70 3.25
  95  0.216  0.008  0.961-  72 3.08  71 3.25
  96  0.716  0.992  0.961-  71 3.08  72 3.25
 
  LATTYP: Found a triclinic cell.
 ALAT       =    17.8238589327
 B/A-ratio  =     0.6989248630
 C/A-ratio  =     1.0156975818
 COS(alpha) =     0.0001355172
 COS(beta)  =     0.5146378593
 COS(gamma) =     0.6988877578
  
  Lattice vectors:
  
 A1 = (  -0.1406063366, -12.4576271275, -12.7466742118)
 A2 = (  -0.0011956322, -12.4575380825,   0.0007464135)
 A3 = ( -12.7162481321,  -0.0020049566, -12.8856194186)


Analysis of symmetry for initial positions (statically):
=====================================================================
 Subroutine PRICEL returns following result:
 
  LATTYP: Found a triclinic cell.
 ALAT       =     8.8502626515
 B/A-ratio  =     1.4075896561
 C/A-ratio  =     0.7202149489
 COS(alpha) =     0.0000518785
 COS(beta)  =     0.0156138721
 COS(gamma) =     0.7036188608
  
  Lattice vectors:
  
 A1 = (  -6.2878208978,   6.2278110854,  -0.0694726034)
 A2 = (   0.0011956322,  12.4575380825,  -0.0007464135)
 A3 = (  -0.0697053522,  -0.0000445225,  -6.3737103126)
 
   4 primitive cells build up your supercell.
 

 Routine SETGRP: Setting up the symmetry group for a 
 triclinic supercell.


 Subroutine GETGRP returns: Found  1 space group operations
 (whereof  1 operations were pure point group operations)
 out of a pool of  2 trial point group operations.


The static configuration has the point symmetry C_1 .


Analysis of symmetry for dynamics (positions and initial velocities):
=====================================================================
 Subroutine PRICEL returns following result:
 
  LATTYP: Found a triclinic cell.
 ALAT       =     8.8502626515
 B/A-ratio  =     1.4075896561
 C/A-ratio  =     0.7202149489
 COS(alpha) =     0.0000518785
 COS(beta)  =     0.0156138721
 COS(gamma) =     0.7036188608
  
  Lattice vectors:
  
 A1 = (  -6.2878208978,   6.2278110854,  -0.0694726034)
 A2 = (   0.0011956322,  12.4575380825,  -0.0007464135)
 A3 = (  -0.0697053522,  -0.0000445225,  -6.3737103126)
 
   4 primitive cells build up your supercell.
 

 Routine SETGRP: Setting up the symmetry group for a 
 triclinic supercell.


 Subroutine GETGRP returns: Found  1 space group operations
 (whereof  1 operations were pure point group operations)
 out of a pool of  2 trial point group operations.


The dynamic configuration has the point symmetry C_1 .


 Subroutine INISYM returns: Found  1 space group operations
 (whereof  1 operations are pure point group operations),
 and found     4 'primitive' translations

 
 
 KPOINTS: Automatic 3x3x3                         

Automatic generation of k-mesh.
Space group operators:
 irot       det(A)        alpha          n_x          n_y          n_z        tau_x        tau_y        tau_z
    1     1.000000     0.000000     1.000000     0.000000     0.000000     0.000000     0.000000     0.000000
 
 Subroutine IBZKPT returns following result:
 ===========================================
 
 Found     14 irreducible k-points:
 
 Following reciprocal coordinates:
            Coordinates               Weight
  0.000000  0.000000  0.000000      1.000000
  0.333333 -0.000000 -0.000000      2.000000
  0.000000  0.333333 -0.000000      2.000000
  0.333333  0.333333  0.000000      2.000000
 -0.333333  0.333333  0.000000      2.000000
  0.000000  0.000000  0.333333      2.000000
  0.333333  0.000000  0.333333      2.000000
 -0.333333  0.000000  0.333333      2.000000
  0.000000  0.333333  0.333333      2.000000
  0.333333  0.333333  0.333333      2.000000
 -0.333333  0.333333  0.333333      2.000000
  0.000000 -0.333333  0.333333      2.000000
  0.333333 -0.333333  0.333333      2.000000
 -0.333333 -0.333333  0.333333      2.000000
 
 Following cartesian coordinates:
            Coordinates               Weight
  0.000000  0.000000  0.000000      1.000000
  0.026507 -0.000003 -0.000290      2.000000
 -0.000004  0.026758 -0.000000      2.000000
  0.026503  0.026755 -0.000290      2.000000
 -0.026511  0.026760  0.000290      2.000000
 -0.000287  0.000002  0.026152      2.000000
  0.026220 -0.000001  0.025862      2.000000
 -0.026794  0.000004  0.026442      2.000000
 -0.000291  0.026759  0.026152      2.000000
  0.026215  0.026757  0.025862      2.000000
 -0.026798  0.026762  0.026442      2.000000
 -0.000283 -0.026756  0.026152      2.000000
  0.026224 -0.026759  0.025862      2.000000
 -0.026790 -0.026753  0.026442      2.000000
 
 
 Subroutine IBZKPT_HF returns following result:
 ==============================================
 
 Found     27 k-points in 1st BZ
 the following     27 k-points will be used (e.g. in the exchange kernel)
 Following reciprocal coordinates:   # in IRBZ
  0.000000  0.000000  0.000000    0.03703704   1 t-inv F
  0.333333 -0.000000 -0.000000    0.03703704   2 t-inv F
  0.000000  0.333333 -0.000000    0.03703704   3 t-inv F
  0.333333  0.333333  0.000000    0.03703704   4 t-inv F
 -0.333333  0.333333  0.000000    0.03703704   5 t-inv F
  0.000000  0.000000  0.333333    0.03703704   6 t-inv F
  0.333333  0.000000  0.333333    0.03703704   7 t-inv F
 -0.333333  0.000000  0.333333    0.03703704   8 t-inv F
  0.000000  0.333333  0.333333    0.03703704   9 t-inv F
  0.333333  0.333333  0.333333    0.03703704  10 t-inv F
 -0.333333  0.333333  0.333333    0.03703704  11 t-inv F
  0.000000 -0.333333  0.333333    0.03703704  12 t-inv F
  0.333333 -0.333333  0.333333    0.03703704  13 t-inv F
 -0.333333 -0.333333  0.333333    0.03703704  14 t-inv F
 -0.333333  0.000000  0.000000    0.03703704   2 t-inv T
 -0.000000 -0.333333  0.000000    0.03703704   3 t-inv T
 -0.333333 -0.333333 -0.000000    0.03703704   4 t-inv T
  0.333333 -0.333333 -0.000000    0.03703704   5 t-inv T
 -0.000000  0.000000 -0.333333    0.03703704   6 t-inv T
 -0.333333 -0.000000 -0.333333    0.03703704   7 t-inv T
  0.333333 -0.000000 -0.333333    0.03703704   8 t-inv T
 -0.000000 -0.333333 -0.333333    0.03703704   9 t-inv T
 -0.333333 -0.333333 -0.333333    0.03703704  10 t-inv T
  0.333333 -0.333333 -0.333333    0.03703704  11 t-inv T
 -0.000000  0.333333 -0.333333    0.03703704  12 t-inv T
 -0.333333  0.333333 -0.333333    0.03703704  13 t-inv T
  0.333333  0.333333 -0.333333    0.03703704  14 t-inv T


--------------------------------------------------------------------------------------------------------




 Dimension of arrays:
   k-points           NKPTS =     14   k-points in BZ     NKDIM =     27   number of bands    NBANDS=    256
   number of dos      NEDOS =    301   number of ions     NIONS =     96
   non local maximal  LDIM  =      6   non local SUM 2l+1 LMDIM =     18
   total plane-waves  NPLWV = ******
   max r-space proj   IRMAX =      1   max aug-charges    IRDMAX= 314103
   dimension x,y,z NGX =   112 NGY =  108 NGZ =  112
   dimension x,y,z NGXF=   224 NGYF=  216 NGZF=  224
   support grid    NGXF=   448 NGYF=  432 NGZF=  448
   ions per type =               8   8  48   8  24
 NGX,Y,Z   is equivalent  to a cutoff of  14.80, 14.41, 14.61 a.u.
 NGXF,Y,Z  is equivalent  to a cutoff of  29.61, 28.83, 29.21 a.u.


 I would recommend the setting:
   dimension x,y,z NGX =   109 NGY =  107 NGZ =  110
 SYSTEM =  MAPbI3-Cubic                            
 POSCAR =  C N H Pb I                              

 Startparameter for this run:
   NWRITE =      2    write-flag & timer
   PREC   = accura    normal or accurate (medium, high low for compatibility)
   ISTART =      0    job   : 0-new  1-cont  2-samecut
   ICHARG =      2    charge: 1-file 2-atom 10-const
   ISPIN  =      1    spin polarized calculation?
   LNONCOLLINEAR =      F non collinear calculations
   LSORBIT =      F    spin-orbit coupling
   INIWAV =      1    electr: 0-lowe 1-rand  2-diag
   LASPH  =      F    aspherical Exc in radial PAW
   METAGGA=      F    non-selfconsistent MetaGGA calc.

 Electronic Relaxation 1
   ENCUT  =  700.0 eV  51.45 Ry    7.17 a.u.  27.13 26.87 27.50*2*pi/ulx,y,z
   ENINI  =  700.0     initial cutoff
   ENAUG  =  644.9 eV  augmentation charge cutoff
   NELM   =     60;   NELMIN=  2; NELMDL= -5     # of ELM steps 
   EDIFF  = 0.1E-07   stopping-criterion for ELM
   LREAL  =      F    real-space projection
   NLSPLINE    = F    spline interpolate recip. space projectors
   LCOMPAT=      F    compatible to vasp.4.4
   GGA_COMPAT  = T    GGA compatible to vasp.4.4-vasp.4.6
   LMAXPAW     = -100 max onsite density
   LMAXMIX     =    2 max onsite mixed and CHGCAR
   VOSKOWN=      0    Vosko Wilk Nusair interpolation
   ROPT   =    0.00000   0.00000   0.00000   0.00000
   ROPT   =    0.00000
 Ionic relaxation
   EDIFFG = 0.1E-06   stopping-criterion for IOM
   NSW    =      0    number of steps for IOM
   NBLOCK =      1;   KBLOCK =      1    inner block; outer block 
   IBRION =     -1    ionic relax: 0-MD 1-quasi-New 2-CG
   NFREE  =      0    steps in history (QN), initial steepest desc. (CG)
   ISIF   =      2    stress and relaxation
   IWAVPR =     10    prediction:  0-non 1-charg 2-wave 3-comb
   ISYM   =      3    0-nonsym 1-usesym 2-fastsym
   LCORR  =      T    Harris-Foulkes like correction to forces

   POTIM  = 0.5000    time-step for ionic-motion
   TEIN   =    0.0    initial temperature
   TEBEG  =    0.0;   TEEND  =   0.0 temperature during run
   SMASS  =  -3.00    Nose mass-parameter (am)
   estimated Nose-frequenzy (Omega)   =  0.10E-29 period in steps =****** mass=  -0.362E-26a.u.
   SCALEE = 1.0000    scale energy and forces
   NPACO  =    256;   APACO  = 16.0  distance and # of slots for P.C.
   PSTRESS=    0.0 pullay stress

  Mass of Ions in am
   POMASS =  12.01 14.00  1.00207.20126.90
  Ionic Valenz
   ZVAL   =   4.00  5.00  1.00 14.00  7.00
  Atomic Wigner-Seitz radii
   RWIGS  =  -1.00 -1.00 -1.00 -1.00 -1.00
  virtual crystal weights 
   VCA    =   1.00  1.00  1.00  1.00  1.00
   NELECT =     400.0000    total number of electrons
   NUPDOWN=      -1.0000    fix difference up-down

 DOS related values:
   EMIN   =  10.00;   EMAX   =-10.00  energy-range for DOS
   EFERMI =   0.00
   ISMEAR =     0;   SIGMA  =   0.00  broadening in eV -4-tet -1-fermi 0-gaus

 Electronic relaxation 2 (details)
   IALGO  =     58    algorithm
   LDIAG  =      T    sub-space diagonalisation (order eigenvalues)
   LSUBROT=      F    optimize rotation matrix (better conditioning)
   TURBO    =      0    0=normal 1=particle mesh
   IRESTART =      0    0=no restart 2=restart with 2 vectors
   NREBOOT  =      0    no. of reboots
   NMIN     =      0    reboot dimension
   EREF     =   0.00    reference energy to select bands
   IMIX   =      4    mixing-type and parameters
     AMIX     =   0.40;   BMIX     =  1.00
     AMIX_MAG =   1.60;   BMIX_MAG =  1.00
     AMIN     =   0.10
     WC   =   100.;   INIMIX=   1;  MIXPRE=   1;  MAXMIX= -45

 Intra band minimization:
   WEIMIN = 0.0000     energy-eigenvalue tresh-hold
   EBREAK =  0.98E-11  absolut break condition
   DEPER  =   0.30     relativ break condition  

   TIME   =   0.40     timestep for ELM

  volume/ion in A,a.u.               =      20.80       140.38
  Fermi-wavevector in a.u.,A,eV,Ry     =   0.957863  1.810099 12.483376  0.917502
  Thomas-Fermi vector in A             =   2.086919
 
 Write flags
   LWAVE  =      F    write WAVECAR
   LCHARG =      F    write CHGCAR
   LVTOT  =      F    write LOCPOT, total local potential
   LVHAR  =      F    write LOCPOT, Hartree potential only
   LELF   =      F    write electronic localiz. function (ELF)
   LORBIT =      0    0 simple, 1 ext, 2 COOP (PROOUT)


 Dipole corrections
   LMONO  =      F    monopole corrections only (constant potential shift)
   LDIPOL =      F    correct potential (dipole corrections)
   IDIPOL =      0    1-x, 2-y, 3-z, 4-all directions 
   EPSILON=  1.0000000 bulk dielectric constant

 Core level calculations are selected ICORELEVEL =  1
 Exchange correlation treatment:
   GGA     =    PE    GGA type
   LEXCH   =     8    internal setting for exchange type
   VOSKOWN=      0    Vosko Wilk Nusair interpolation
   EXXOEP  =     0    0=HF, 1=EXX-LHF (local Hartree Fock) 2=EXX OEP
   LHFCALC =     T    Hartree Fock is set to
   LSYMGRAD=     F    symmetrize gradient (conserves proper symmetry)
   PRECFOCK=fast      Normal, Fast or Accurate (Low or Medium for compatibility)
   LRHFCALC=     F    long range Hartree Fock
   LRSCOR  =     F    long range correlation only (use DFT for short range part)
   LTHOMAS =     F    Thomas Fermi screening in HF
   LMODELHF=     F    short range full HF, long range fraction AEXX
   ENCUT4O =  -1.0   cutoff for four orbital integrals eV
   LMAXFOCK=     4    L truncation for augmentation on plane wave grid
   LMAXFOCKAE=  -1    L truncation for all-electron charge restoration on plane wave grid
   NMAXFOCKAE=   1    number of basis functions for all-electron charge restoration
   LFOCKAEDFT=     F  apply the AE augmentation even for DFT
   NKREDX  =     1    reduce k-point grid by
   NKREDY  =     1    reduce k-point grid by
   NKREDZ  =     1    reduce k-point grid by
   SHIFTRED=     F    shift reduced grid of Gamma
   HFKIDENT=     F    idential grid for each k-point
   ODDONLY =     F    use only odd q-grid points
   EVENONLY=     F    use only even q-grid points
   HFALPHA =   -1.0000 decay constant for conv. correction
   MCALPHA =    0.0000 extent of test-charge in conv. correction in multipole expansion
   AEXX    =    0.2500 exact exchange contribution
   HFSCREEN=    0.2070 screening length (either q_TF or 0.3 A-1)
   HFSCREENC=   0.2070 screening length for correlation (either q_TF or 0.3 A-1)
   HFRCUT  =    0.0000 spherical cutoff for potential kernel
   ALDAX   =    0.7500 LDA exchange part
   AGGAX   =    0.7500 GGA exchange part
   ALDAC   =    1.0000 LDA correlation
   AGGAC   =    1.0000 GGA correlation
   NBANDSGWLOW=     1    first orbital included in HF term
   ENCUTFOCK=  -1.0 apply spherical cutoff to Coloumb kernel
 Linear response parameters
   LEPSILON=     F    determine dielectric tensor
   LRPA    =     F    only Hartree local field effects (RPA)
   LNABLA  =     F    use nabla operator in PAW spheres
   LVEL    =     F    velocity operator in full k-point grid
   LINTERFAST=   F  fast interpolation
   KINTER  =     0    interpolate to denser k-point grid
   CSHIFT  =0.1000    complex shift for real part using Kramers Kronig
   OMEGAMAX=  -1.0    maximum frequency
   DEG_THRESHOLD= 0.2000000E-02 threshold for treating states as degnerate
   RTIME   =    0.100 relaxation time in fs

 Orbital magnetization related:
   ORBITALMAG=     F  switch on orbital magnetization
   LCHIMAG   =     F  perturbation theory with respect to B field
   DQ        =  0.001000  dq finite difference perturbation B field



--------------------------------------------------------------------------------------------------------


 Static calculation
 charge density and potential will be updated during run
 non-spin polarized calculation
 Conjugate gradient for all bands (Freysoldt, et al. PRB 79, 241103 (2009))
 preconditioned conjugated gradient                                        
 perform sub-space diagonalisation
    before iterative eigenvector-optimisation
 modified Broyden-mixing scheme, WC =      100.0
 initial mixing is a Kerker type mixing with AMIX =  0.4000 and BMIX =      1.0000
 Hartree-type preconditioning will be used
 using additional bands           56
 reciprocal scheme for non local part
 use partial core corrections
 no Harris-corrections to forces 
 use gradient corrections 
 use of overlap-Matrix (Vanderbilt PP)
 Gauss-broadening in eV      SIGMA  =   0.00


--------------------------------------------------------------------------------------------------------


  energy-cutoff  :      700.00
  volume of cell :     1996.98
      direct lattice vectors                 reciprocal lattice vectors
    12.576837428  0.001915912  0.138198793     0.079520802 -0.000007684 -0.000869670
     0.001195632 12.457538083 -0.000746413    -0.000012224  0.080272684 -0.000000427
     0.139410704  0.000089045 12.747420625    -0.000862111  0.000004784  0.078456671

  length of vectors
    12.577596840 12.457538162 12.748182927     0.079525558  0.080272685  0.078461408


 
 k-points in units of 2pi/SCALE and weight: Automatic 3x3x3                         
   0.00000000  0.00000000  0.00000000       0.037
   0.02650693 -0.00000256 -0.00028989       0.074
  -0.00000407  0.02675756 -0.00000014       0.074
   0.02650286  0.02675500 -0.00029003       0.074
  -0.02651101  0.02676012  0.00028975       0.074
  -0.00028737  0.00000159  0.02615222       0.074
   0.02621956 -0.00000097  0.02586233       0.074
  -0.02679430  0.00000416  0.02644211       0.074
  -0.00029144  0.02675916  0.02615208       0.074
   0.02621549  0.02675659  0.02586219       0.074
  -0.02679838  0.02676172  0.02644197       0.074
  -0.00028330 -0.02675597  0.02615237       0.074
   0.02622364 -0.02675853  0.02586248       0.074
  -0.02679023 -0.02675341  0.02644226       0.074
 
 k-points in reciprocal lattice and weights: Automatic 3x3x3                         
   0.00000000  0.00000000  0.00000000       0.037
   0.33333333 -0.00000000 -0.00000000       0.074
   0.00000000  0.33333333 -0.00000000       0.074
   0.33333333  0.33333333  0.00000000       0.074
  -0.33333333  0.33333333  0.00000000       0.074
   0.00000000  0.00000000  0.33333333       0.074
   0.33333333  0.00000000  0.33333333       0.074
  -0.33333333  0.00000000  0.33333333       0.074
   0.00000000  0.33333333  0.33333333       0.074
   0.33333333  0.33333333  0.33333333       0.074
  -0.33333333  0.33333333  0.33333333       0.074
   0.00000000 -0.33333333  0.33333333       0.074
   0.33333333 -0.33333333  0.33333333       0.074
  -0.33333333 -0.33333333  0.33333333       0.074
 
 position of ions in fractional coordinates (direct lattice) 
   0.19922437  0.24991757  0.22544181
   0.69476389  0.24989898  0.23238890
   0.19476389  0.74989898  0.23238890
   0.69922437  0.74991757  0.22544181
   0.19922437  0.24991757  0.72544181
   0.69476389  0.24989898  0.73238890
   0.19476389  0.74989898  0.73238890
   0.69922437  0.74991757  0.72544181
   0.30515096  0.25001070  0.27408077
   0.80392348  0.24999659  0.27368782
   0.30392348  0.74999659  0.27368782
   0.80515096  0.75001070  0.27408077
   0.30515096  0.25001070  0.77408077
   0.80392348  0.24999659  0.77368782
   0.30392348  0.74999659  0.77368782
   0.80515096  0.75001070  0.77408077
   0.21032292  0.24982080  0.13962611
   0.69982741  0.24982139  0.14615115
   0.19982741  0.74982139  0.14615115
   0.71032292  0.74982080  0.13962611
   0.21032292  0.24982080  0.63962611
   0.69982741  0.24982139  0.64615115
   0.19982741  0.74982139  0.64615115
   0.71032292  0.74982080  0.63962611
   0.15573178  0.32238688  0.25064850
   0.65294383  0.32231749  0.26038214
   0.15294383  0.82231749  0.26038214
   0.65573178  0.82238688  0.25064850
   0.15573178  0.32238688  0.75064850
   0.65294383  0.32231749  0.76038214
   0.15294383  0.82231749  0.76038214
   0.65573178  0.82238688  0.75064850
   0.15582265  0.17747075  0.25080033
   0.65306301  0.17748140  0.26050109
   0.15306301  0.67748140  0.26050109
   0.65582265  0.67747075  0.25080033
   0.15582265  0.17747075  0.75080033
   0.65306301  0.17748140  0.76050109
   0.15306301  0.67748140  0.76050109
   0.65582265  0.67747075  0.75080033
   0.34945449  0.31794866  0.25241474
   0.84681467  0.31779990  0.24909825
   0.34681467  0.81779990  0.24909825
   0.84945449  0.81794866  0.25241474
   0.34945449  0.31794866  0.75241474
   0.84681467  0.31779990  0.74909825
   0.34681467  0.81779990  0.74909825
   0.84945449  0.81794866  0.75241474
   0.34951146  0.18203371  0.25256630
   0.84689914  0.18217607  0.24921550
   0.34689914  0.68217607  0.24921550
   0.84951146  0.68203371  0.25256630
   0.34951146  0.18203371  0.75256630
   0.84689914  0.18217607  0.74921550
   0.34689914  0.68217607  0.74921550
   0.84951146  0.68203371  0.75256630
   0.30066553  0.25011280  0.35570861
   0.80567462  0.25007424  0.35550988
   0.30567462  0.75007424  0.35550988
   0.80066553  0.75011280  0.35570861
   0.30066553  0.25011280  0.85570861
   0.80567462  0.25007424  0.85550988
   0.30567462  0.75007424  0.85550988
   0.80066553  0.75011280  0.85570861
   0.47244373  0.50035347  0.48881096
   0.97243982  0.49962612  0.48881193
   0.47243982  0.99962612  0.48881193
   0.97244373  0.00035347  0.48881096
   0.47244373  0.50035347  0.98881096
   0.97243982  0.49962612  0.98881193
   0.47243982  0.99962612  0.98881193
   0.97244373  0.00035347  0.98881096
   0.45474909  0.50018470  0.23757159
   0.95473825  0.49979740  0.23757389
   0.45473825  0.99979740  0.23757389
   0.95474909  0.00018470  0.23757159
   0.45474909  0.50018470  0.73757159
   0.95473825  0.49979740  0.73757389
   0.45473825  0.99979740  0.73757389
   0.95474909  0.00018470  0.73757159
   0.45664105  0.24997763  0.01051570
   0.94262983  0.24998039  0.01314873
   0.44262983  0.74998039  0.01314873
   0.95664105  0.74997763  0.01051570
   0.45664105  0.24997763  0.51051570
   0.94262983  0.24998039  0.51314873
   0.44262983  0.74998039  0.51314873
   0.95664105  0.74997763  0.51051570
   0.21617313  0.49163577  0.46123970
   0.71616975  0.50835910  0.46123970
   0.21616975  0.00835910  0.46123970
   0.71617313  0.99163577  0.46123970
   0.21617313  0.49163577  0.96123970
   0.71616975  0.50835910  0.96123970
   0.21616975  0.00835910  0.96123970
   0.71617313  0.99163577  0.96123970
 
 position of ions in cartesian coordinates  (Angst):
   2.53734038  3.11375948  2.90114756
   8.77062879  3.11447780  3.05818809
   2.48280789  9.34228889  2.98871549
   8.82635691  9.34348647  2.96987375
   2.60704573  3.11380400  9.27485787
   8.84033414  3.11452232  9.43189840
   2.55251324  9.34233341  9.36242580
   8.89606226  9.34353100  9.34358406
   3.87634274  3.11512681  3.53580777
  10.14926879  3.11590660  3.59972843
   3.86144789  9.34371768  3.53025583
  10.16535927  9.34485381  3.60453396
   3.94604809  3.11517134  9.90951808
  10.21897414  3.11595112  9.97343874
   3.93115324  9.34376221  9.90396614
  10.23506462  9.34489833  9.97824427
   2.66496125  3.11256753  1.80875261
   8.82228934  3.11351333  1.95957897
   2.53446844  9.34132441  1.89010636
   8.95397778  9.34229453  1.87747880
   2.73466660  3.11261205  8.18246292
   8.89199469  3.11355785  8.33328928
   2.60417380  9.34136893  8.26381668
   9.02368313  9.34233905  8.25118911
   1.99394187  4.01646754  3.21640312
   8.24865382  4.01655660  3.40919616
   1.96083293 10.24436768  3.33972356
   8.28295840 10.24619454  3.28512931
   2.06364722  4.01651206  9.59011343
   8.31835918  4.01660112  9.78290647
   2.03053828 10.24441221  9.71343387
   8.35266375 10.24623906  9.65883962
   1.99493261  2.21116946  3.21845931
   8.24999621  2.21225571  3.41083696
   1.96217531  8.44006679  3.34136436
   8.28394914  8.44089646  3.28718550
   2.06463796  2.21121398  9.59216962
   8.31970156  2.21230023  9.78454727
   2.03188066  8.44011132  9.71507467
   8.35365449  8.44094098  9.66089581
   4.43060176  3.96154957  3.26569368
  10.68535732  3.96064900  3.29215167
   4.39753642 10.18846009  3.22267907
  10.71961829 10.19127657  3.33441987
   4.50030711  3.96159410  9.63940400
  10.75506267  3.96069352  9.66586198
   4.46724177 10.18850461  9.59638938
  10.78932364 10.19132109  9.70813019
   4.43117691  2.26838395  3.26773501
  10.68627392  2.27111009  3.29375931
   4.39845303  8.49892118  3.22428670
  10.72019344  8.49811094  3.33646120
   4.50088226  2.26842847  9.64144532
  10.75597928  2.27115462  9.66746962
   4.46815838  8.49896570  9.59799702
  10.78989879  8.49815546  9.71017151
   3.83131010  3.11639747  4.57573217
  10.18269956  3.11688465  4.64299060
   3.89487867  9.34469574  4.57351800
  10.12032663  9.34612446  4.64445836
   3.90101545  3.11644199 10.94944248
  10.25240492  3.11692918 11.01670091
   3.96458402  9.34474026 10.94722831
  10.19003198  9.34616899 11.01816867
   6.01059172  6.23412113  6.29599662
  12.29896052  6.22601801  6.36510838
   6.01113962 12.45382909  6.29563578
  12.29841262  0.00631005  6.36546923
   6.08029707  6.23416566 12.66970694
  12.36866587  6.22606253 12.73881870
   6.08084497 12.45387362 12.66934609
  12.36811797  0.00635457 12.73917954
   5.75302348  6.23196230  3.09089741
  12.04130574  6.22809554  3.16002498
   5.75348484 12.45590663  3.09055238
  12.04084438  0.00415122  3.16037001
   5.82272883  6.23200682  9.46460772
  12.11101109  6.22814006  9.53373529
   5.82319019 12.45595115  9.46426269
  12.11054973  0.00419574  9.53408033
   5.74486511  3.11498162  0.19696873
  11.85743410  3.11594745  0.29769616
   5.56961320  9.34375854  0.22822355
  12.03388164  9.34470862  0.26569492
   5.81457046  3.11502615  6.57067904
  11.92713945  3.11599197  6.67140647
   5.63931855  9.34380306  6.60193387
  12.10358699  9.34475314  6.63940523
   2.78366387  6.12502662  5.90912437
   9.07206005  6.33431601  5.97821085
   2.78304352  0.10458902  5.90948466
   9.07268040 12.35475362  5.97785056
   2.85336923  6.12507115 12.28283469
   9.14176540  6.33436054 12.35192117
   2.85274887  0.10463354 12.28319498
   9.14238576 12.35479814 12.35156088
 


--------------------------------------------------------------------------------------------------------


 k-point  1 :   0.0000 0.0000 0.0000  plane waves:   84007
 k-point  2 :   0.3333-0.0000-0.0000  plane waves:   84003
 k-point  3 :   0.0000 0.3333-0.0000  plane waves:   83995
 k-point  4 :   0.3333 0.3333 0.0000  plane waves:   84018
 k-point  5 :  -0.3333 0.3333 0.0000  plane waves:   84019
 k-point  6 :   0.0000 0.0000 0.3333  plane waves:   83960
 k-point  7 :   0.3333 0.0000 0.3333  plane waves:   83937
 k-point  8 :  -0.3333 0.0000 0.3333  plane waves:   83982
 k-point  9 :   0.0000 0.3333 0.3333  plane waves:   83984
 k-point 10 :   0.3333 0.3333 0.3333  plane waves:   84012
 k-point 11 :  -0.3333 0.3333 0.3333  plane waves:   83970
 k-point 12 :   0.0000-0.3333 0.3333  plane waves:   83977
 k-point 13 :   0.3333-0.3333 0.3333  plane waves:   84013
 k-point 14 :  -0.3333-0.3333 0.3333  plane waves:   83973

 maximum and minimum number of plane-waves per node :      3556     3433

 maximum number of plane-waves:     84019
 maximum index in each direction: 
   IXMAX=   27   IYMAX=   27   IZMAX=   27
   IXMIN=  -27   IYMIN=  -27   IZMIN=  -27

 NGX is ok and might be reduce to 110
 WARNING: aliasing errors must be expected set NGY to 110 to avoid them
 NGZ is ok and might be reduce to 110
 aliasing errors are usually negligible using standard VASP settings
 and one can safely disregard these warnings

 parallel 3D FFT for wavefunctions:
    minimum data exchange during FFTs selected (reduces bandwidth)
 parallel 3D FFT for charge:
    minimum data exchange during FFTs selected (reduces bandwidth)


 FFT grid for exact exchange (Hartree Fock) 
  NGX = 56; NGY = 56; NGZ = 60

 
 Radii for the augmentation spheres in the non-local exchange
 for species   1 augmentation radius   0.944 (default was   0.699)
       energy cutoff for augmentation   2800.0
 for species   2 augmentation radius   0.957 (default was   0.709)
       energy cutoff for augmentation   2800.0
 for species   3 augmentation radius   0.702 (default was   0.520)
       energy cutoff for augmentation   2800.0
 for species   4 augmentation radius   1.558 (default was   1.154)
       energy cutoff for augmentation   2800.0
 for species   5 augmentation radius   1.603 (default was   1.188)
       energy cutoff for augmentation   2800.0

 real space projection operators:
  total allocation   :      10826.09 KBytes
  max/ min on nodes  :        930.20        159.73

 Maximum index for augmentation-charges in exchange          231
  SETUP_FOCK is finished

 total amount of memory used by VASP on root node   110530. kBytes
========================================================================

   base      :      30000. kBytes
   nonl-proj :      43490. kBytes
   fftplans  :       6143. kBytes
   grid      :       6326. kBytes
   one-center:         62. kBytes
   HF        :        194. kBytes
   nonlr-proj:       3846. kBytes
   wavefun   :      20469. kBytes
 
     INWAV:  cpu time    0.0000: real time    0.0002
 Broyden mixing: mesh for mixing (old mesh)
   NGX = 55   NGY = 53   NGZ = 55
  (NGX  =224   NGY  =216   NGZ  =224)
  gives a total of 160325 points

 initial charge density was supplied:
 charge density of overlapping atoms calculated
 number of electron     400.0000000 magnetization 
 keeping initial charge density in first step


--------------------------------------------------------------------------------------------------------


 Maximum index for augmentation-charges         4640 (set IRDMAX)


--------------------------------------------------------------------------------------------------------


 First call to EWALD:  gamma=   0.141
 Maximum number of real-space cells 3x 3x 3
 Maximum number of reciprocal cells 3x 3x 3

 FEWALD executed in parallel
    FEWALD:  cpu time    0.0040: real time    0.0053


----------------------------------------- Iteration    1(   1)  ---------------------------------------


    POTLOK:  cpu time    0.1600: real time    0.1607
    SETDIJ:  cpu time    0.4520: real time    0.4506
    TRIAL :  cpu time    6.6924: real time    6.6989
    CORREC:  cpu time    0.0000: real time    0.0014
    --------------------------------------------
      LOOP:  cpu time    7.3125: real time    7.4849

 eigenvalue-minimisations  : 12480
 total energy-change (2. order) : 0.2854533E+05  (-0.1296269E+06)
 number of electron     400.0000000 magnetization 
 augmentation part      400.0000000 magnetization 

 Free energy of the ion-electron system (eV)
  ---------------------------------------------------
  alpha Z        PSCENC =       370.05370877
  Ewald energy   TEWEN  =    -15508.85391218
  -Hartree energ DENC   =     -8136.32138145
  -exchange      EXHF   =         0.00000000
  -V(xc)+E(xc)   XCENC  =       254.77318749
  PAW double counting   =     20708.16285019   -20051.16882790
  entropy T*S    EENTRO =        -0.00000000
  eigenvalues    EBANDS =     26228.25462303
  atomic energy  EATOM  =     24680.42500649
  ---------------------------------------------------
  free energy    TOTEN  =     28545.32525444 eV

  energy without entropy =    28545.32525444  energy(sigma->0) =    28545.32525444
  exchange ACFDT corr.  =         0.00000000  see jH, gK, PRB 81, 115126


--------------------------------------------------------------------------------------------------------




----------------------------------------- Iteration    1(   2)  ---------------------------------------


    TRIAL :  cpu time    4.5123: real time    4.5254
    CORREC:  cpu time    0.0000: real time    0.0023
    --------------------------------------------
      LOOP:  cpu time    4.5163: real time    4.6119

 eigenvalue-minimisations  :  8096
 total energy-change (2. order) :-0.2138099E+05  (-0.2069898E+05)
 number of electron     400.0000000 magnetization 
 augmentation part      400.0000000 magnetization 

 Free energy of the ion-electron system (eV)
  ---------------------------------------------------
  alpha Z        PSCENC =       370.05370877
  Ewald energy   TEWEN  =    -15508.85391218
  -Hartree energ DENC   =     -8136.32138145
  -exchange      EXHF   =         0.00000000
  -V(xc)+E(xc)   XCENC  =       254.77318749
  PAW double counting   =     20708.16285019   -20051.16882790
  entropy T*S    EENTRO =        -0.00004179
  eigenvalues    EBANDS =      4847.26082871
  atomic energy  EATOM  =     24680.42500649
  ---------------------------------------------------
  free energy    TOTEN  =      7164.33141832 eV

  energy without entropy =     7164.33146012  energy(sigma->0) =     7164.33143922
  exchange ACFDT corr.  =         0.00000000  see jH, gK, PRB 81, 115126


--------------------------------------------------------------------------------------------------------




----------------------------------------- Iteration    1(   3)  ---------------------------------------


    TRIAL :  cpu time    4.9363: real time    4.9448
    CORREC:  cpu time    0.0040: real time    0.0036
    --------------------------------------------
      LOOP:  cpu time    4.9443: real time    4.9814

 eigenvalue-minimisations  :  9216
 total energy-change (2. order) :-0.5732201E+04  (-0.5566990E+04)
 number of electron     400.0000000 magnetization 
 augmentation part      400.0000000 magnetization 

 Free energy of the ion-electron system (eV)
  ---------------------------------------------------
  alpha Z        PSCENC =       370.05370877
  Ewald energy   TEWEN  =    -15508.85391218
  -Hartree energ DENC   =     -8136.32138145
  -exchange      EXHF   =         0.00000000
  -V(xc)+E(xc)   XCENC  =       254.77318749
  PAW double counting   =     20708.16285019   -20051.16882790
  entropy T*S    EENTRO =        -0.00000005
  eigenvalues    EBANDS =      -884.94049034
  atomic energy  EATOM  =     24680.42500649
  ---------------------------------------------------
  free energy    TOTEN  =      1432.13014101 eV

  energy without entropy =     1432.13014106  energy(sigma->0) =     1432.13014104
  exchange ACFDT corr.  =         0.00000000  see jH, gK, PRB 81, 115126


--------------------------------------------------------------------------------------------------------




----------------------------------------- Iteration    1(   4)  ---------------------------------------


    TRIAL :  cpu time    5.8244: real time    5.8454
    CORREC:  cpu time    0.0040: real time    0.0018
    --------------------------------------------
      LOOP:  cpu time    5.8284: real time    7.7812

 eigenvalue-minimisations  : 10752
 total energy-change (2. order) :-0.1082011E+04  (-0.1051942E+04)
 number of electron     400.0000000 magnetization 
 augmentation part      400.0000000 magnetization 

 Free energy of the ion-electron system (eV)
  ---------------------------------------------------
  alpha Z        PSCENC =       370.05370877
  Ewald energy   TEWEN  =    -15508.85391218
  -Hartree energ DENC   =     -8136.32138145
  -exchange      EXHF   =         0.00000000
  -V(xc)+E(xc)   XCENC  =       254.77318749
  PAW double counting   =     20708.16285019   -20051.16882790
  entropy T*S    EENTRO =        -0.00000000
  eigenvalues    EBANDS =     -1966.95162554
  atomic energy  EATOM  =     24680.42500649
  ---------------------------------------------------
  free energy    TOTEN  =       350.11900586 eV

  energy without entropy =      350.11900586  energy(sigma->0) =      350.11900586
  exchange ACFDT corr.  =         0.00000000  see jH, gK, PRB 81, 115126


--------------------------------------------------------------------------------------------------------




----------------------------------------- Iteration    1(   5)  ---------------------------------------


    TRIAL :  cpu time    4.5803: real time    5.7798
    CORREC:  cpu time    0.0000: real time    0.0011
    CHARGE:  cpu time    0.8561: real time    0.8535
    --------------------------------------------
      LOOP:  cpu time    5.4363: real time    6.7203

 eigenvalue-minimisations  :  8512
 total energy-change (2. order) :-0.8056361E+02  (-0.7991411E+02)
 number of electron     400.0000000 magnetization 
 augmentation part       11.8547192 magnetization 

 Free energy of the ion-electron system (eV)
  ---------------------------------------------------
  alpha Z        PSCENC =       370.05370877
  Ewald energy   TEWEN  =    -15508.85391218
  -Hartree energ DENC   =     -8136.32138145
  -exchange      EXHF   =         0.00000000
  -V(xc)+E(xc)   XCENC  =       254.77318749
  PAW double counting   =     20708.16285019   -20051.16882790
  entropy T*S    EENTRO =         0.00000000
  eigenvalues    EBANDS =     -2047.51523792
  atomic energy  EATOM  =     24680.42500649
  ---------------------------------------------------
  free energy    TOTEN  =       269.55539349 eV

  energy without entropy =      269.55539349  energy(sigma->0) =      269.55539349
  exchange ACFDT corr.  =         0.00000000  see jH, gK, PRB 81, 115126


--------------------------------------------------------------------------------------------------------




----------------------------------------- Iteration    1(   6)  ---------------------------------------


    POTLOK:  cpu time    0.1600: real time    0.1619
    SETDIJ:  cpu time    0.4360: real time    0.4361
    TRIAL :  cpu time  358.2544: real time  358.5143
    CORREC:  cpu time  358.4944: real time  358.7295
    CHARGE:  cpu time    0.8561: real time    0.8537
    --------------------------------------------
      LOOP:  cpu time  718.2009: real time  719.9084

 eigenvalue-minimisations  :     0
 total energy-change (2. order) :-0.7261740E+03  (-0.1420306E+02)
 number of electron     400.0000000 magnetization 
 augmentation part       12.5327328 magnetization 

 Free energy of the ion-electron system (eV)
  ---------------------------------------------------
  alpha Z        PSCENC =       370.05370877
  Ewald energy   TEWEN  =    -15508.85391218
  -Hartree energ DENC   =     -8233.91508710
  -exchange      EXHF   =       755.66265538
  -V(xc)+E(xc)   XCENC  =       274.04886729
  PAW double counting   =     49276.38742862   -48608.61842277
  entropy T*S    EENTRO =        -0.00000000
  eigenvalues    EBANDS =     -3461.80884577
  atomic energy  EATOM  =     24680.42500649
  ---------------------------------------------------
  free energy    TOTEN  =      -456.61860128 eV

  energy without entropy =     -456.61860128  energy(sigma->0) =     -456.61860128
  exchange ACFDT corr.  =         0.00000000  see jH, gK, PRB 81, 115126


--------------------------------------------------------------------------------------------------------




----------------------------------------- Iteration    1(   7)  ---------------------------------------


    POTLOK:  cpu time    0.1760: real time    0.1762
    SETDIJ:  cpu time    0.5920: real time    0.5914
    TRIAL :  cpu time  358.2984: real time  358.9385
    CORREC:  cpu time  358.6784: real time  358.9100
    CHARGE:  cpu time    0.8521: real time    0.8545
    --------------------------------------------
      LOOP:  cpu time  718.5969: real time  719.5060

 eigenvalue-minimisations  :     0
 total energy-change (2. order) :-0.1413381E+02  (-0.5621933E+01)
 number of electron     400.0000000 magnetization 
 augmentation part        9.7092600 magnetization 

 Free energy of the ion-electron system (eV)
  ---------------------------------------------------
  alpha Z        PSCENC =       370.05370877
  Ewald energy   TEWEN  =    -15508.85391218
  -Hartree energ DENC   =     -8473.10347848
  -exchange      EXHF   =       763.23941964
  -V(xc)+E(xc)   XCENC  =       279.71602216
  PAW double counting   =     45978.38820168   -45307.77389419
  entropy T*S    EENTRO =        -0.00000000
  eigenvalues    EBANDS =     -3252.84348628
  atomic energy  EATOM  =     24680.42500649
  ---------------------------------------------------
  free energy    TOTEN  =      -470.75241238 eV

  energy without entropy =     -470.75241238  energy(sigma->0) =     -470.75241238
  exchange ACFDT corr.  =         0.00000000  see jH, gK, PRB 81, 115126


--------------------------------------------------------------------------------------------------------




----------------------------------------- Iteration    1(   8)  ---------------------------------------


    POTLOK:  cpu time    0.1520: real time    0.1545
    SETDIJ:  cpu time    0.5440: real time    0.5426
    TRIAL :  cpu time  358.3744: real time  358.7230
    CORREC:  cpu time  358.2304: real time  358.4670
    CHARGE:  cpu time    0.8641: real time    0.8609
    --------------------------------------------
      LOOP:  cpu time  718.1689: real time  718.8620

 eigenvalue-minimisations  :     0
 total energy-change (2. order) :-0.5621661E+01  (-0.2034133E+01)
 number of electron     400.0000000 magnetization 
 augmentation part        9.4560064 magnetization 

 Free energy of the ion-electron system (eV)
  ---------------------------------------------------
  alpha Z        PSCENC =       370.05370877
  Ewald energy   TEWEN  =    -15508.85391218
  -Hartree energ DENC   =     -8407.23396168
  -exchange      EXHF   =       765.68015891
  -V(xc)+E(xc)   XCENC  =       278.07440002
  PAW double counting   =     42091.20805674   -41427.50116415
  entropy T*S    EENTRO =         0.00000000
  eigenvalues    EBANDS =     -3318.22636678
  atomic energy  EATOM  =     24680.42500649
  ---------------------------------------------------
  free energy    TOTEN  =      -476.37407386 eV

  energy without entropy =     -476.37407386  energy(sigma->0) =     -476.37407386
  exchange ACFDT corr.  =         0.00000000  see jH, gK, PRB 81, 115126


--------------------------------------------------------------------------------------------------------




----------------------------------------- Iteration    1(   9)  ---------------------------------------


    POTLOK:  cpu time    0.1800: real time    0.1812
    SETDIJ:  cpu time    0.4360: real time    0.4352
    TRIAL :  cpu time  358.1064: real time  359.4072
    CORREC:  cpu time  358.2064: real time  358.4429
    CHARGE:  cpu time    0.8521: real time    0.8535
    --------------------------------------------
      LOOP:  cpu time  717.7809: real time  719.6429

 eigenvalue-minimisations  :     0
 total energy-change (2. order) :-0.2040666E+01  (-0.6555805E+00)
 number of electron     400.0000000 magnetization 
 augmentation part        9.5472437 magnetization 

 Free energy of the ion-electron system (eV)
  ---------------------------------------------------
  alpha Z        PSCENC =       370.05370877
  Ewald energy   TEWEN  =    -15508.85391218
  -Hartree energ DENC   =     -8454.90842281
  -exchange      EXHF   =       769.10715567
  -V(xc)+E(xc)   XCENC  =       279.94344008
  PAW double counting   =     38104.29079259   -37441.76368556
  entropy T*S    EENTRO =         0.00000000
  eigenvalues    EBANDS =     -3276.70882288
  atomic energy  EATOM  =     24680.42500649
  ---------------------------------------------------
  free energy    TOTEN  =      -478.41473983 eV

  energy without entropy =     -478.41473983  energy(sigma->0) =     -478.41473983
  exchange ACFDT corr.  =         0.00000000  see jH, gK, PRB 81, 115126


--------------------------------------------------------------------------------------------------------




----------------------------------------- Iteration    1(  10)  ---------------------------------------


    POTLOK:  cpu time    0.1640: real time    0.1657
    SETDIJ:  cpu time    0.4440: real time    0.4424
    TRIAL :  cpu time  358.1664: real time  358.4338
    CORREC:  cpu time  358.2064: real time  358.4373
    CHARGE:  cpu time    0.8801: real time    0.8811
    --------------------------------------------
      LOOP:  cpu time  717.8649: real time  718.5799

 eigenvalue-minimisations  :     0
 total energy-change (2. order) :-0.6563710E+00  (-0.1580659E+00)
 number of electron     400.0000000 magnetization 
 augmentation part        9.2629128 magnetization 

 Free energy of the ion-electron system (eV)
  ---------------------------------------------------
  alpha Z        PSCENC =       370.05370877
  Ewald energy   TEWEN  =    -15508.85391218
  -Hartree energ DENC   =     -8454.31844938
  -exchange      EXHF   =       768.71035980
  -V(xc)+E(xc)   XCENC  =       279.37743404
  PAW double counting   =     35921.36037127   -35257.83540961
  entropy T*S    EENTRO =         0.00000000
  eigenvalues    EBANDS =     -3277.99022003
  atomic energy  EATOM  =     24680.42500649
  ---------------------------------------------------
  free energy    TOTEN  =      -479.07111084 eV

  energy without entropy =     -479.07111084  energy(sigma->0) =     -479.07111084
  exchange ACFDT corr.  =         0.00000000  see jH, gK, PRB 81, 115126


--------------------------------------------------------------------------------------------------------




----------------------------------------- Iteration    1(  11)  ---------------------------------------


    POTLOK:  cpu time    0.1680: real time    0.1673
    SETDIJ:  cpu time    0.6000: real time    0.6004
    TRIAL :  cpu time  358.3104: real time  358.6873
    CORREC:  cpu time  358.1944: real time  358.4293
    CHARGE:  cpu time    0.8641: real time    0.8623
    --------------------------------------------
      LOOP:  cpu time  718.1369: real time  718.7801

 eigenvalue-minimisations  :     0
 total energy-change (2. order) :-0.1580730E+00  (-0.7627378E-01)
 number of electron     400.0000000 magnetization 
 augmentation part        9.3588860 magnetization 

 Free energy of the ion-electron system (eV)
  ---------------------------------------------------
  alpha Z        PSCENC =       370.05370877
  Ewald energy   TEWEN  =    -15508.85391218
  -Hartree energ DENC   =     -8431.22868271
  -exchange      EXHF   =       768.21166776
  -V(xc)+E(xc)   XCENC  =       278.60282383
  PAW double counting   =     35373.68791659   -34710.47039819
  entropy T*S    EENTRO =         0.00000000
  eigenvalues    EBANDS =     -3299.65731421
  atomic energy  EATOM  =     24680.42500649
  ---------------------------------------------------
  free energy    TOTEN  =      -479.22918385 eV

  energy without entropy =     -479.22918385  energy(sigma->0) =     -479.22918385
  exchange ACFDT corr.  =         0.00000000  see jH, gK, PRB 81, 115126


--------------------------------------------------------------------------------------------------------




----------------------------------------- Iteration    1(  12)  ---------------------------------------


    POTLOK:  cpu time    0.1720: real time    0.1699
    SETDIJ:  cpu time    0.5920: real time    0.5957
    TRIAL :  cpu time  358.0664: real time  358.3726
    CORREC:  cpu time  358.2504: real time  358.4878
    CHARGE:  cpu time    0.8561: real time    0.8530
    --------------------------------------------
      LOOP:  cpu time  717.9369: real time  718.5326

 eigenvalue-minimisations  :     0
 total energy-change (2. order) :-0.7623593E-01  (-0.2375153E-01)
 number of electron     400.0000000 magnetization 
 augmentation part        9.3484912 magnetization 

 Free energy of the ion-electron system (eV)
  ---------------------------------------------------
  alpha Z        PSCENC =       370.05370877
  Ewald energy   TEWEN  =    -15508.85391218
  -Hartree energ DENC   =     -8447.32606532
  -exchange      EXHF   =       768.66580386
  -V(xc)+E(xc)   XCENC  =       279.01768321
  PAW double counting   =     35248.60829192   -34584.94862857
  entropy T*S    EENTRO =         0.00000000
  eigenvalues    EBANDS =     -3284.94730796
  atomic energy  EATOM  =     24680.42500649
  ---------------------------------------------------
  free energy    TOTEN  =      -479.30541979 eV

  energy without entropy =     -479.30541979  energy(sigma->0) =     -479.30541979
  exchange ACFDT corr.  =         0.00000000  see jH, gK, PRB 81, 115126


--------------------------------------------------------------------------------------------------------




----------------------------------------- Iteration    1(  13)  ---------------------------------------


    POTLOK:  cpu time    0.1680: real time    0.1695
    SETDIJ:  cpu time    0.5960: real time    0.5963
    TRIAL :  cpu time  358.1824: real time  358.4345
    CORREC:  cpu time  358.0744: real time  358.3044
    CHARGE:  cpu time    0.8561: real time    0.8558
    --------------------------------------------
      LOOP:  cpu time  717.8769: real time  718.4090

 eigenvalue-minimisations  :     0
 total energy-change (2. order) :-0.2372163E-01  (-0.7485524E-02)
 number of electron     400.0000000 magnetization 
 augmentation part        9.3493644 magnetization 

 Free energy of the ion-electron system (eV)
  ---------------------------------------------------
  alpha Z        PSCENC =       370.05370877
  Ewald energy   TEWEN  =    -15508.85391218
  -Hartree energ DENC   =     -8447.15434238
  -exchange      EXHF   =       768.75906165
  -V(xc)+E(xc)   XCENC  =       279.06611998
  PAW double counting   =     35394.94910461   -34731.31267489
  entropy T*S    EENTRO =         0.00000000
  eigenvalues    EBANDS =     -3285.26121347
  atomic energy  EATOM  =     24680.42500649
  ---------------------------------------------------
  free energy    TOTEN  =      -479.32914142 eV

  energy without entropy =     -479.32914142  energy(sigma->0) =     -479.32914142
  exchange ACFDT corr.  =         0.00000000  see jH, gK, PRB 81, 115126


--------------------------------------------------------------------------------------------------------




----------------------------------------- Iteration    1(  14)  ---------------------------------------


    POTLOK:  cpu time    0.1720: real time    0.1715
    SETDIJ:  cpu time    0.5880: real time    0.5892
    TRIAL :  cpu time  357.7384: real time  357.9955
    CORREC:  cpu time  357.9824: real time  358.2206
    CHARGE:  cpu time    0.8721: real time    0.8702
    --------------------------------------------
      LOOP:  cpu time  717.3528: real time  717.8967

 eigenvalue-minimisations  :     0
 total energy-change (2. order) :-0.7468173E-02  (-0.2171021E-02)
 number of electron     400.0000000 magnetization 
 augmentation part        9.3678365 magnetization 

 Free energy of the ion-electron system (eV)
  ---------------------------------------------------
  alpha Z        PSCENC =       370.05370877
  Ewald energy   TEWEN  =    -15508.85391218
  -Hartree energ DENC   =     -8446.02738748
  -exchange      EXHF   =       768.72674218
  -V(xc)+E(xc)   XCENC  =       279.04420122
  PAW double counting   =     35574.24404476   -34910.62585391
  entropy T*S    EENTRO =        -0.00000000
  eigenvalues    EBANDS =     -3286.32315944
  atomic energy  EATOM  =     24680.42500649
  ---------------------------------------------------
  free energy    TOTEN  =      -479.33660959 eV

  energy without entropy =     -479.33660959  energy(sigma->0) =     -479.33660959
  exchange ACFDT corr.  =         0.00000000  see jH, gK, PRB 81, 115126


--------------------------------------------------------------------------------------------------------




----------------------------------------- Iteration    1(  15)  ---------------------------------------


    POTLOK:  cpu time    0.1600: real time    0.1590
    SETDIJ:  cpu time    0.5640: real time    0.5644
    TRIAL :  cpu time  357.8904: real time  358.1424
    CORREC:  cpu time  357.9304: real time  358.1662
    CHARGE:  cpu time    0.8521: real time    0.8528
    --------------------------------------------
      LOOP:  cpu time  717.3968: real time  717.9653

 eigenvalue-minimisations  :     0
 total energy-change (2. order) :-0.2155123E-02  (-0.6680292E-03)
 number of electron     400.0000000 magnetization 
 augmentation part        9.3519184 magnetization 

 Free energy of the ion-electron system (eV)
  ---------------------------------------------------
  alpha Z        PSCENC =       370.05370877
  Ewald energy   TEWEN  =    -15508.85391218
  -Hartree energ DENC   =     -8447.70787127
  -exchange      EXHF   =       768.75234649
[...]


 FORCES acting on ions:
    Electron-Ion                     Ewald-Force                    Non-Local-Force
 -----------------------------------------------------------------------------------------------
   0.868E+02 0.565E-01 0.396E+02   -.940E+02 -.648E-01 -.431E+02   0.663E+01 0.761E-02 0.321E+01
   0.864E+02 0.554E-01 0.344E+02   -.938E+02 -.641E-01 -.374E+02   0.682E+01 0.793E-02 0.274E+01
   0.864E+02 0.554E-01 0.344E+02   -.938E+02 -.641E-01 -.374E+02   0.682E+01 0.793E-02 0.274E+01
   0.868E+02 0.565E-01 0.396E+02   -.940E+02 -.648E-01 -.431E+02   0.663E+01 0.761E-02 0.321E+01
   0.868E+02 0.565E-01 0.396E+02   -.940E+02 -.648E-01 -.431E+02   0.663E+01 0.761E-02 0.321E+01
   0.864E+02 0.554E-01 0.344E+02   -.938E+02 -.641E-01 -.374E+02   0.682E+01 0.793E-02 0.274E+01
   0.864E+02 0.554E-01 0.344E+02   -.938E+02 -.641E-01 -.374E+02   0.682E+01 0.793E-02 0.274E+01
   0.868E+02 0.565E-01 0.396E+02   -.940E+02 -.648E-01 -.431E+02   0.663E+01 0.761E-02 0.321E+01
   -.374E+02 -.867E-01 -.187E+02   0.366E+02 0.832E-01 0.178E+02   0.117E+01 0.345E-02 0.101E+01
   -.386E+02 -.104E+00 -.162E+02   0.377E+02 0.101E+00 0.157E+02   0.132E+01 0.255E-02 0.667E+00
   -.386E+02 -.104E+00 -.162E+02   0.377E+02 0.101E+00 0.157E+02   0.132E+01 0.255E-02 0.667E+00
   -.374E+02 -.867E-01 -.187E+02   0.366E+02 0.832E-01 0.178E+02   0.117E+01 0.345E-02 0.101E+01
   -.374E+02 -.867E-01 -.187E+02   0.366E+02 0.832E-01 0.178E+02   0.117E+01 0.345E-02 0.101E+01
   -.386E+02 -.104E+00 -.162E+02   0.377E+02 0.101E+00 0.157E+02   0.132E+01 0.255E-02 0.667E+00
   -.386E+02 -.104E+00 -.162E+02   0.377E+02 0.101E+00 0.157E+02   0.132E+01 0.255E-02 0.667E+00
   -.374E+02 -.867E-01 -.187E+02   0.366E+02 0.832E-01 0.178E+02   0.117E+01 0.345E-02 0.101E+01
   0.430E+01 0.521E-01 0.525E+02   -.381E+01 -.582E-01 -.579E+02   -.506E+00 0.627E-02 0.562E+01
   0.685E+01 0.430E-01 0.525E+02   -.674E+01 -.480E-01 -.580E+02   -.114E+00 0.509E-02 0.564E+01
   0.685E+01 0.430E-01 0.525E+02   -.674E+01 -.480E-01 -.580E+02   -.114E+00 0.509E-02 0.564E+01
   0.430E+01 0.521E-01 0.525E+02   -.381E+01 -.582E-01 -.579E+02   -.506E+00 0.627E-02 0.562E+01
   0.430E+01 0.521E-01 0.525E+02   -.381E+01 -.582E-01 -.579E+02   -.506E+00 0.627E-02 0.562E+01
   0.685E+01 0.430E-01 0.525E+02   -.674E+01 -.480E-01 -.580E+02   -.114E+00 0.509E-02 0.564E+01
   0.685E+01 0.430E-01 0.525E+02   -.674E+01 -.480E-01 -.580E+02   -.114E+00 0.509E-02 0.564E+01
   0.430E+01 0.521E-01 0.525E+02   -.381E+01 -.582E-01 -.579E+02   -.506E+00 0.627E-02 0.562E+01
   0.314E+02 -.394E+02 -.929E+01   -.342E+02 0.439E+02 0.108E+02   0.289E+01 -.459E+01 -.153E+01
   0.298E+02 -.394E+02 -.112E+02   -.325E+02 0.439E+02 0.129E+02   0.279E+01 -.458E+01 -.172E+01
   0.298E+02 -.394E+02 -.112E+02   -.325E+02 0.439E+02 0.129E+02   0.279E+01 -.458E+01 -.172E+01
   0.314E+02 -.394E+02 -.929E+01   -.342E+02 0.439E+02 0.108E+02   0.289E+01 -.459E+01 -.153E+01
   0.314E+02 -.394E+02 -.929E+01   -.342E+02 0.439E+02 0.108E+02   0.289E+01 -.459E+01 -.153E+01
   0.298E+02 -.394E+02 -.112E+02   -.325E+02 0.439E+02 0.129E+02   0.279E+01 -.458E+01 -.172E+01
   0.298E+02 -.394E+02 -.112E+02   -.325E+02 0.439E+02 0.129E+02   0.279E+01 -.458E+01 -.172E+01
   0.314E+02 -.394E+02 -.929E+01   -.342E+02 0.439E+02 0.108E+02   0.289E+01 -.459E+01 -.153E+01
   0.314E+02 0.394E+02 -.938E+01   -.342E+02 -.439E+02 0.109E+02   0.288E+01 0.459E+01 -.154E+01
   0.298E+02 0.394E+02 -.113E+02   -.325E+02 -.439E+02 0.130E+02   0.278E+01 0.458E+01 -.173E+01
   0.298E+02 0.394E+02 -.113E+02   -.325E+02 -.439E+02 0.130E+02   0.278E+01 0.458E+01 -.173E+01
   0.314E+02 0.394E+02 -.938E+01   -.342E+02 -.439E+02 0.109E+02   0.288E+01 0.459E+01 -.154E+01
   0.314E+02 0.394E+02 -.938E+01   -.342E+02 -.439E+02 0.109E+02   0.288E+01 0.459E+01 -.154E+01
   0.298E+02 0.394E+02 -.113E+02   -.325E+02 -.439E+02 0.130E+02   0.278E+01 0.458E+01 -.173E+01
   0.298E+02 0.394E+02 -.113E+02   -.325E+02 -.439E+02 0.130E+02   0.278E+01 0.458E+01 -.173E+01
   0.314E+02 0.394E+02 -.938E+01   -.342E+02 -.439E+02 0.109E+02   0.288E+01 0.459E+01 -.154E+01
   -.342E+02 -.484E+02 0.164E+02   0.376E+02 0.536E+02 -.180E+02   -.359E+01 -.547E+01 0.174E+01
   -.330E+02 -.487E+02 0.185E+02   0.363E+02 0.539E+02 -.204E+02   -.349E+01 -.547E+01 0.199E+01
   -.330E+02 -.487E+02 0.185E+02   0.363E+02 0.539E+02 -.204E+02   -.349E+01 -.547E+01 0.199E+01
   -.342E+02 -.484E+02 0.164E+02   0.376E+02 0.536E+02 -.180E+02   -.359E+01 -.547E+01 0.174E+01
   -.342E+02 -.484E+02 0.164E+02   0.376E+02 0.536E+02 -.180E+02   -.359E+01 -.547E+01 0.174E+01
   -.330E+02 -.487E+02 0.185E+02   0.363E+02 0.539E+02 -.204E+02   -.349E+01 -.547E+01 0.199E+01
   -.330E+02 -.487E+02 0.185E+02   0.363E+02 0.539E+02 -.204E+02   -.349E+01 -.547E+01 0.199E+01
   -.342E+02 -.484E+02 0.164E+02   0.376E+02 0.536E+02 -.180E+02   -.359E+01 -.547E+01 0.174E+01
   -.342E+02 0.484E+02 0.162E+02   0.376E+02 -.536E+02 -.179E+02   -.359E+01 0.547E+01 0.172E+01
   -.331E+02 0.487E+02 0.184E+02   0.364E+02 -.539E+02 -.203E+02   -.349E+01 0.547E+01 0.198E+01
   -.331E+02 0.487E+02 0.184E+02   0.364E+02 -.539E+02 -.203E+02   -.349E+01 0.547E+01 0.198E+01
   -.342E+02 0.484E+02 0.162E+02   0.376E+02 -.536E+02 -.179E+02   -.359E+01 0.547E+01 0.172E+01
   -.342E+02 0.484E+02 0.162E+02   0.376E+02 -.536E+02 -.179E+02   -.359E+01 0.547E+01 0.172E+01
   -.331E+02 0.487E+02 0.184E+02   0.364E+02 -.539E+02 -.203E+02   -.349E+01 0.547E+01 0.198E+01
   -.331E+02 0.487E+02 0.184E+02   0.364E+02 -.539E+02 -.203E+02   -.349E+01 0.547E+01 0.198E+01
   -.342E+02 0.484E+02 0.162E+02   0.376E+02 -.536E+02 -.179E+02   -.359E+01 0.547E+01 0.172E+01
   0.599E+01 -.801E-01 -.653E+02   -.627E+01 0.883E-01 0.719E+02   0.251E+00 -.855E-02 -.697E+01
   0.148E+01 -.675E-01 -.640E+02   -.126E+01 0.737E-01 0.705E+02   -.270E+00 -.645E-02 -.687E+01
   0.148E+01 -.675E-01 -.640E+02   -.126E+01 0.737E-01 0.705E+02   -.270E+00 -.645E-02 -.687E+01
   0.599E+01 -.801E-01 -.653E+02   -.627E+01 0.883E-01 0.719E+02   0.251E+00 -.855E-02 -.697E+01
   0.599E+01 -.801E-01 -.653E+02   -.627E+01 0.883E-01 0.719E+02   0.251E+00 -.855E-02 -.697E+01
   0.148E+01 -.675E-01 -.640E+02   -.126E+01 0.737E-01 0.705E+02   -.270E+00 -.645E-02 -.687E+01
   0.148E+01 -.675E-01 -.640E+02   -.126E+01 0.737E-01 0.705E+02   -.270E+00 -.645E-02 -.687E+01
   0.599E+01 -.801E-01 -.653E+02   -.627E+01 0.883E-01 0.719E+02   0.251E+00 -.855E-02 -.697E+01
   -.315E+02 -.285E+01 -.118E+02   0.301E+02 0.287E+01 0.114E+02   0.126E+01 -.182E-01 0.326E+00
   -.315E+02 0.298E+01 -.118E+02   0.301E+02 -.302E+01 0.114E+02   0.125E+01 0.294E-01 0.325E+00
   -.315E+02 0.298E+01 -.118E+02   0.301E+02 -.302E+01 0.114E+02   0.125E+01 0.294E-01 0.325E+00
   -.315E+02 -.285E+01 -.118E+02   0.301E+02 0.287E+01 0.114E+02   0.126E+01 -.182E-01 0.326E+00
   -.315E+02 -.285E+01 -.118E+02   0.301E+02 0.287E+01 0.114E+02   0.126E+01 -.182E-01 0.326E+00
   -.315E+02 0.298E+01 -.118E+02   0.301E+02 -.302E+01 0.114E+02   0.125E+01 0.294E-01 0.325E+00
   -.315E+02 0.298E+01 -.118E+02   0.301E+02 -.302E+01 0.114E+02   0.125E+01 0.294E-01 0.325E+00
   -.315E+02 -.285E+01 -.118E+02   0.301E+02 0.287E+01 0.114E+02   0.126E+01 -.182E-01 0.326E+00
   -.173E+02 -.148E+01 0.562E+01   0.175E+02 0.148E+01 -.556E+01   -.110E+00 -.282E-02 -.765E-01
   -.173E+02 0.156E+01 0.563E+01   0.175E+02 -.157E+01 -.556E+01   -.109E+00 0.396E-02 -.764E-01
   -.173E+02 0.156E+01 0.563E+01   0.175E+02 -.157E+01 -.556E+01   -.109E+00 0.396E-02 -.764E-01
   -.173E+02 -.148E+01 0.562E+01   0.175E+02 0.148E+01 -.556E+01   -.110E+00 -.282E-02 -.765E-01
   -.173E+02 -.148E+01 0.562E+01   0.175E+02 0.148E+01 -.556E+01   -.110E+00 -.282E-02 -.765E-01
   -.173E+02 0.156E+01 0.563E+01   0.175E+02 -.157E+01 -.556E+01   -.109E+00 0.396E-02 -.764E-01
   -.173E+02 0.156E+01 0.563E+01   0.175E+02 -.157E+01 -.556E+01   -.109E+00 0.396E-02 -.764E-01
   -.173E+02 -.148E+01 0.562E+01   0.175E+02 0.148E+01 -.556E+01   -.110E+00 -.282E-02 -.765E-01
   -.191E+02 -.520E-01 -.161E+02   0.190E+02 0.534E-01 0.167E+02   0.870E-01 -.107E-02 -.554E+00
   -.945E+01 -.563E-01 -.162E+02   0.931E+01 0.577E-01 0.169E+02   0.158E+00 -.109E-02 -.607E+00
   -.945E+01 -.563E-01 -.162E+02   0.931E+01 0.577E-01 0.169E+02   0.158E+00 -.109E-02 -.607E+00
   -.191E+02 -.520E-01 -.161E+02   0.190E+02 0.534E-01 0.167E+02   0.870E-01 -.107E-02 -.554E+00
   -.191E+02 -.520E-01 -.161E+02   0.190E+02 0.534E-01 0.167E+02   0.870E-01 -.107E-02 -.554E+00
   -.945E+01 -.563E-01 -.162E+02   0.931E+01 0.577E-01 0.169E+02   0.158E+00 -.109E-02 -.607E+00
   -.945E+01 -.563E-01 -.162E+02   0.931E+01 0.577E-01 0.169E+02   0.158E+00 -.109E-02 -.607E+00
   -.191E+02 -.520E-01 -.161E+02   0.190E+02 0.534E-01 0.167E+02   0.870E-01 -.107E-02 -.554E+00
   0.379E+01 0.173E+01 -.255E+01   -.323E+01 -.181E+01 0.214E+01   -.561E+00 0.665E-01 0.427E+00
   0.379E+01 -.171E+01 -.255E+01   -.323E+01 0.179E+01 0.213E+01   -.561E+00 -.678E-01 0.427E+00
   0.379E+01 -.171E+01 -.255E+01   -.323E+01 0.179E+01 0.213E+01   -.561E+00 -.678E-01 0.427E+00
   0.379E+01 0.173E+01 -.255E+01   -.323E+01 -.181E+01 0.214E+01   -.561E+00 0.665E-01 0.427E+00
   0.379E+01 0.173E+01 -.255E+01   -.323E+01 -.181E+01 0.214E+01   -.561E+00 0.665E-01 0.427E+00
   0.379E+01 -.171E+01 -.255E+01   -.323E+01 0.179E+01 0.213E+01   -.561E+00 -.678E-01 0.427E+00
   0.379E+01 -.171E+01 -.255E+01   -.323E+01 0.179E+01 0.213E+01   -.561E+00 -.678E-01 0.427E+00
   0.379E+01 0.173E+01 -.255E+01   -.323E+01 -.181E+01 0.214E+01   -.561E+00 0.665E-01 0.427E+00
 -----------------------------------------------------------------------------------------------
   -.593E+02 -.119E+00 -.261E+02   0.114E-11 0.379E-12 -.961E-12   0.555E+02 0.111E+00 0.245E+02
 
 
 POSITION                                       TOTAL-FORCE (eV/Angst)
 -----------------------------------------------------------------------------------
      2.53734      3.11376      2.90115        -0.250590     -0.000368     -0.127244
      8.77063      3.11448      3.05819        -0.258990     -0.000374     -0.108867
      2.48281      9.34229      2.98872        -0.258990     -0.000374     -0.108867
      8.82636      9.34349      2.96987        -0.250590     -0.000368     -0.127244
      2.60705      3.11380      9.27486        -0.250590     -0.000368     -0.127244
      8.84033      3.11452      9.43190        -0.258990     -0.000374     -0.108867
      2.55251      9.34233      9.36243        -0.258990     -0.000374     -0.108867
      8.89606      9.34353      9.34358        -0.250590     -0.000368     -0.127244
      3.87634      3.11513      3.53581         0.459331      0.000204      0.216862
     10.14927      3.11591      3.59973         0.480466      0.000175      0.191089
      3.86145      9.34372      3.53026         0.480466      0.000175      0.191089
     10.16536      9.34485      3.60453         0.459331      0.000204      0.216862
      3.94605      3.11517      9.90952         0.459331      0.000204      0.216862
     10.21897      3.11595      9.97344         0.480466      0.000175      0.191089
      3.93115      9.34376      9.90397         0.480466      0.000175      0.191089
     10.23506      9.34490      9.97824         0.459331      0.000204      0.216862
      2.66496      3.11257      1.80875        -0.037810      0.000505      0.414445
      8.82229      3.11351      1.95958        -0.007503      0.000406      0.415091
      2.53447      9.34132      1.89011        -0.007503      0.000406      0.415091
      8.95398      9.34229      1.87748        -0.037810      0.000505      0.414445
      2.73467      3.11261      8.18246        -0.037810      0.000505      0.414445
      8.89199      3.11356      8.33329        -0.007503      0.000406      0.415091
      2.60417      9.34137      8.26382        -0.007503      0.000406      0.415091
      9.02368      9.34234      8.25119        -0.037810      0.000505      0.414445
      1.99394      4.01647      3.21640         0.215266     -0.326555     -0.108083
      8.24865      4.01656      3.40920         0.209164     -0.325695     -0.120598
      1.96083     10.24437      3.33972         0.209164     -0.325695     -0.120598
      8.28296     10.24619      3.28513         0.215266     -0.326555     -0.108083
      2.06365      4.01651      9.59011         0.215266     -0.326555     -0.108083
      8.31836      4.01660      9.78291         0.209164     -0.325695     -0.120598
      2.03054     10.24441      9.71343         0.209164     -0.325695     -0.120598
      8.35266     10.24624      9.65884         0.215266     -0.326555     -0.108083
      1.99493      2.21117      3.21846         0.214731      0.326837     -0.108975
      8.25000      2.21226      3.41084         0.208536      0.326090     -0.121325
      1.96218      8.44007      3.34136         0.208536      0.326090     -0.121325
      8.28395      8.44090      3.28719         0.214731      0.326837     -0.108975
      2.06464      2.21121      9.59217         0.214731      0.326837     -0.108975
      8.31970      2.21230      9.78455         0.208536      0.326090     -0.121325
      2.03188      8.44011      9.71507         0.208536      0.326090     -0.121325
      8.35365      8.44094      9.66090         0.214731      0.326837     -0.108975
      4.43060      3.96155      3.26569        -0.332559     -0.496721      0.145158
     10.68536      3.96065      3.29215        -0.325093     -0.493838      0.167933
      4.39754     10.18846      3.22268        -0.325093     -0.493838      0.167933
     10.71962     10.19128      3.33442        -0.332559     -0.496721      0.145158
      4.50031      3.96159      9.63940        -0.332559     -0.496721      0.145158
     10.75506      3.96069      9.66586        -0.325093     -0.493838      0.167933
      4.46724     10.18850      9.59639        -0.325093     -0.493838      0.167933
     10.78932     10.19132      9.70813        -0.332559     -0.496721      0.145158
      4.43118      2.26838      3.26774        -0.332959      0.497185      0.143763
     10.68627      2.27111      3.29376        -0.325683      0.494172      0.166770
      4.39845      8.49892      3.22429        -0.325683      0.494172      0.166770
     10.72019      8.49811      3.33646        -0.332959      0.497185      0.143763
      4.50088      2.26843      9.64145        -0.332959      0.497185      0.143763
     10.75598      2.27115      9.66747        -0.325683      0.494172      0.166770
      4.46816      8.49897      9.59800        -0.325683      0.494172      0.166770
     10.78990      8.49816      9.71017        -0.332959      0.497185      0.143763
      3.83131      3.11640      4.57573        -0.012322     -0.000803     -0.603582
     10.18270      3.11688      4.64299        -0.064090     -0.000588     -0.613187
      3.89488      9.34470      4.57352        -0.064090     -0.000588     -0.613187
     10.12033      9.34612      4.64446        -0.012322     -0.000803     -0.603582
      3.90102      3.11644     10.94944        -0.012322     -0.000803     -0.603582
     10.25240      3.11693     11.01670        -0.064090     -0.000588     -0.613187
      3.96458      9.34474     10.94723        -0.064090     -0.000588     -0.613187
     10.19003      9.34617     11.01817        -0.012322     -0.000803     -0.603582
      6.01059      6.23412      6.29600         0.011699      0.001671      0.010321
     12.29896      6.22602      6.36511         0.011702     -0.002065      0.010323
      6.01114     12.45383      6.29564         0.011702     -0.002065      0.010323
     12.29841      0.00631      6.36547         0.011699      0.001671      0.010321
      6.08030      6.23417     12.66971         0.011699      0.001671      0.010321
     12.36867      6.22606     12.73882         0.011702     -0.002065      0.010323
      6.08084     12.45387     12.66935         0.011702     -0.002065      0.010323
     12.36812      0.00635     12.73918         0.011699      0.001671      0.010321
      5.75302      6.23196      3.09090         0.044958      0.001677     -0.015351
     12.04131      6.22810      3.16002         0.044939     -0.002112     -0.015349
      5.75348     12.45591      3.09055         0.044939     -0.002112     -0.015349
     12.04084      0.00415      3.16037         0.044958      0.001677     -0.015351
      5.82273      6.23201      9.46461         0.044958      0.001677     -0.015351
     12.11101      6.22814      9.53374         0.044939     -0.002112     -0.015349
      5.82319     12.45595      9.46426         0.044939     -0.002112     -0.015349
     12.11055      0.00420      9.53408         0.044958      0.001677     -0.015351
      5.74487      3.11498      0.19697         0.058074      0.000276     -0.000908
     11.85743      3.11595      0.29770         0.036612      0.000281      0.004055
      5.56961      9.34376      0.22822         0.036612      0.000281      0.004055
     12.03388      9.34471      0.26569         0.058074      0.000276     -0.000908
      5.81457      3.11503      6.57068         0.058074      0.000276     -0.000908
     11.92714      3.11599      6.67141         0.036612      0.000281      0.004055
      5.63932      9.34380      6.60193         0.036612      0.000281      0.004055
     12.10359      9.34475      6.63941         0.058074      0.000276     -0.000908
      2.78366      6.12503      5.90912        -0.023939     -0.007594      0.028837
      9.07206      6.33432      5.97821        -0.023940      0.007235      0.028823
      2.78304      0.10459      5.90948        -0.023940      0.007235      0.028823
      9.07268     12.35475      5.97785        -0.023939     -0.007594      0.028837
      2.85337      6.12507     12.28283        -0.023939     -0.007594      0.028837
      9.14177      6.33436     12.35192        -0.023940      0.007235      0.028823
      2.85275      0.10463     12.28319        -0.023940      0.007235      0.028823
      9.14239     12.35480     12.35156        -0.023939     -0.007594      0.028837
 -----------------------------------------------------------------------------------
    total drift:                                0.009794      0.000414     -0.002648


--------------------------------------------------------------------------------------------------------



  FREE ENERGIE OF THE ION-ELECTRON SYSTEM (eV)
  ---------------------------------------------------
  free  energy   TOTEN  =      -479.34010203 eV

  energy  without entropy=     -479.34010203  energy(sigma->0) =     -479.34010203
 


--------------------------------------------------------------------------------------------------------


    POTLOK:  cpu time    0.9641: real time    0.9647


--------------------------------------------------------------------------------------------------------


     LOOP+:  cpu time22158.5768: real time22187.2559
    4ORBIT:  cpu time    0.0000: real time    0.0000

 total amount of memory used by VASP on root node   135379. kBytes
========================================================================

   base      :      30000. kBytes
   nonl-proj :      43490. kBytes
   fftplans  :       6143. kBytes
   grid      :       6326. kBytes
   one-center:         62. kBytes
   HF        :        194. kBytes
   nonlr-proj:      28695. kBytes
   wavefun   :      20469. kBytes
 
  
  
 General timing and accounting informations for this job:
 ========================================================
  
                  Total CPU time used (sec):    22209.996
                            User time (sec):    22188.407
                          System time (sec):       21.589
                         Elapsed time (sec):    22244.615
  
                   Maximum memory used (kb):      251492.
                   Average memory used (kb):           0.
  
                          Minor page faults:       105164
                          Major page faults:            0
                 Voluntary context switches:         1277
