 running on 1536 total cores
 distrk:  each k-point on  768 cores,    2 groups
 distr:  one band on   24 cores,   32 groups
 using from now: INCAR     
 vasp.5.4.1 24Jun15 (build Nov 25 2015 16:01:35) complex                        
  
 POSCAR found type information on POSCAR  C  N  H  Pb I 
 POSCAR found :  5 types and      96 ions
 scaLAPACK will be used

 ----------------------------------------------------------------------------- 
|                                                                             |
|           W    W    AA    RRRRR   N    N  II  N    N   GGGG   !!!           |
|           W    W   A  A   R    R  NN   N  II  NN   N  G    G  !!!           |
|           W    W  A    A  R    R  N N  N  II  N N  N  G       !!!           |
|           W WW W  AAAAAA  RRRRR   N  N N  II  N  N N  G  GGG   !            |
|           WW  WW  A    A  R   R   N   NN  II  N   NN  G    G                |
|           W    W  A    A  R    R  N    N  II  N    N   GGGG   !!!           |
|                                                                             |
|      You have enabled k-point parallelism (KPAR>1).                         |
|      This developmental code was originally  written by Paul Kent at ORNL,  |
|      and carefully double checked in Vienna.                                |
|      GW as well as linear response parallelism added by Martijn Marsman     |
|      and Georg Kresse.                                                      |
|      Carefully verify results versus KPAR=1.                                |
|      Report problems to Paul Kent and Vienna.                               |
|                                                                             |
 ----------------------------------------------------------------------------- 


 ----------------------------------------------------------------------------- 
|                                                                             |
|  ADVICE TO THIS USER RUNNING 'VASP/VAMP'   (HEAR YOUR MASTER'S VOICE ...):  |
|                                                                             |
|      You have a (more or less) 'large supercell' and for larger cells       |
|      it might be more efficient to use real space projection opertators     |
|      So try LREAL= Auto  in the INCAR   file.                               |
|      Mind: At the moment your POTCAR file does not contain real space       |
|       projectors, and has to be modified,  BUT if you                       |
|      want to do an extremely  accurate calculation you might also keep the  |
|      reciprocal projection scheme          (i.e. LREAL=.FALSE.)             |
|                                                                             |
 ----------------------------------------------------------------------------- 

 LDA part: xc-table for Pade appr. of Perdew
 POSCAR, INCAR and KPOINTS ok, starting setup
 WARNING: small aliasing (wrap around) errors must be expected
 FFT: planning ...
 WAVECAR not read
  WARNING: DENMP: can't reach specified precision
  Number of Electrons is NELECT =   399.999999999888     
 entering main loop
       N       E                     dE             d eps       ncg     rms          ort
DAV:   1     0.285453252544E+05    0.28545E+05   -0.12963E+06  3584   0.486E+03
DAV:   2     0.716433141832E+04   -0.21381E+05   -0.20699E+05  3584   0.170E+03
DAV:   3     0.143213014101E+04   -0.57322E+04   -0.55670E+04  3584   0.463E+02
DAV:   4     0.350119005863E+03   -0.10820E+04   -0.10519E+04  3584   0.189E+02
DAV:   5     0.269555393487E+03   -0.80564E+02   -0.79914E+02  3584   0.497E+01
 gam= 0.000 g(H,U,f)=  0.851E+02 0.548E+01 0.000E+00 ort(H,U,f) = 0.000E+00 0.000E+00 0.000E+00
SDA:   6    -0.456618601284E+03   -0.72617E+03   -0.79914E+02  3584   0.906E+02 0.000E+00
 gam= 0.000 trial= 0.400  step= 0.314 mean= 0.400
 gam= 0.314 g(H,U,f)=  0.266E+02 0.187E+01 0.267E-41 ort(H,U,f) =-0.251E+01 0.291E+01 0.401E-41
CGA:   7    -0.470752412383E+03   -0.14134E+02   -0.14203E+02  3584   0.285E+02 0.399E+00
 gam= 0.314 trial= 0.396  step= 0.393 mean= 0.396
 gam= 0.207 g(H,U,f)=  0.546E+01 0.438E+00 0.109-162 ort(H,U,f) =-0.994E+00 0.112E+01 0.227-162
CGA:   8    -0.476374073856E+03   -0.56217E+01   -0.56219E+01  3584   0.590E+01 0.122E+00
 gam= 0.207 trial= 0.396  step= 0.686 mean= 0.396
 gam= 0.331 g(H,U,f)=  0.181E+01 0.142E+00 0.000E+00 ort(H,U,f) =-0.309E+00 0.346E+00 0.000E+00
CGA:   9    -0.478414739828E+03   -0.20407E+01   -0.20341E+01  3584   0.196E+01 0.365E-01
 gam= 0.331 trial= 0.410  step= 0.666 mean= 0.410
 gam= 0.365 g(H,U,f)=  0.675E+00 0.376E-01 0.000E+00 ort(H,U,f) =-0.114E+00 0.119E+00 0.000E+00
CGA:  10    -0.479071110842E+03   -0.65637E+00   -0.65558E+00  3584   0.713E+00 0.480E-02
 gam= 0.365 trial= 0.423  step= 0.442 mean= 0.423
 gam= 0.409 g(H,U,f)=  0.277E+00 0.148E-01 0.000E+00 ort(H,U,f) =-0.434E-01 0.441E-01 0.000E+00
CGA:  11    -0.479229183855E+03   -0.15807E+00   -0.15807E+00  3584   0.292E+00 0.763E-03
 gam= 0.409 trial= 0.424  step= 0.522 mean= 0.424
 gam= 0.244 g(H,U,f)=  0.679E-01 0.332E-02 0.000E+00 ort(H,U,f) =-0.146E-01 0.137E-01 0.000E+00
CGA:  12    -0.479305419788E+03   -0.76236E-01   -0.76274E-01  3584   0.712E-01-0.879E-03
 gam= 0.244 trial= 0.429  step= 0.669 mean= 0.429
 gam= 0.296 g(H,U,f)=  0.202E-01 0.860E-03 0.000E+00 ort(H,U,f) =-0.322E-02 0.299E-02 0.000E+00
CGA:  13    -0.479329141416E+03   -0.23722E-01   -0.23752E-01  3584   0.211E-01-0.237E-03
 gam= 0.296 trial= 0.441  step= 0.712 mean= 0.441
 gam= 0.309 g(H,U,f)=  0.631E-02 0.209E-03 0.000E+00 ort(H,U,f) =-0.836E-03 0.713E-03 0.000E+00
CGA:  14    -0.479336609589E+03   -0.74682E-02   -0.74855E-02  3584   0.652E-02-0.123E-03
 gam= 0.309 trial= 0.454  step= 0.670 mean= 0.454
 gam= 0.462 g(H,U,f)=  0.297E-02 0.483E-04 0.444-317 ort(H,U,f) =-0.263E-03 0.118E-03-0.339-316
CGA:  15    -0.479338764712E+03   -0.21551E-02   -0.21710E-02  3584   0.301E-02-0.146E-03
 gam= 0.462 trial= 0.465  step= 0.453 mean= 0.465
 gam= 0.432 g(H,U,f)=  0.128E-02 0.199E-04 0.000E+00 ort(H,U,f) = 0.599E-05 0.444E-04 0.000E+00
CGA:  16    -0.479339432451E+03   -0.66774E-03   -0.66803E-03  3584   0.130E-02 0.504E-04
 gam= 0.432 trial= 0.465  step= 0.643 mean= 0.465
 gam= 0.356 g(H,U,f)=  0.454E-03 0.895E-05 0.000E+00 ort(H,U,f) =-0.643E-04 0.236E-05 0.000E+00
CGA:  17    -0.479339852225E+03   -0.41977E-03   -0.42534E-03  3584   0.463E-03-0.619E-04
 gam= 0.356 trial= 0.474  step= 0.708 mean= 0.474
 gam= 0.372 g(H,U,f)=  0.167E-03 0.522E-05 0.000E+00 ort(H,U,f) =-0.592E-06 0.270E-05 0.000E+00
CGA:  18    -0.479340008699E+03   -0.15647E-03   -0.15624E-03  3584   0.172E-03 0.211E-05
 gam= 0.372 trial= 0.485  step= 0.631 mean= 0.485
 gam= 0.378 g(H,U,f)=  0.625E-04 0.264E-05 0.000E+00 ort(H,U,f) = 0.293E-05 0.326E-05 0.000E+00
CGA:  19    -0.479340063709E+03   -0.55010E-04   -0.54561E-04  3584   0.651E-04 0.620E-05
 gam= 0.378 trial= 0.493  step= 0.693 mean= 0.493
 gam= 0.517 g(H,U,f)=  0.325E-04 0.116E-05 0.309-190 ort(H,U,f) =-0.439E-05 0.206E-05 0.141-189
CGA:  20    -0.479340086844E+03   -0.23135E-04   -0.23370E-04  3584   0.337E-04-0.233E-05
 gam= 0.517 trial= 0.503  step= 0.441 mean= 0.503
 gam= 0.369 g(H,U,f)=  0.120E-04 0.461E-06 0.697E-87 ort(H,U,f) = 0.433E-05 0.119E-05 0.701E-86
CGA:  21    -0.479340093840E+03   -0.69959E-05   -0.71650E-05  3584   0.124E-04 0.552E-05
 gam= 0.369 trial= 0.499  step= 0.692 mean= 0.499
 gam= 0.603 g(H,U,f)=  0.738E-05 0.110E-06 0.345E-19 ort(H,U,f) =-0.207E-05 0.375E-06-0.119E-17
CGA:  22    -0.479340098685E+03   -0.48449E-05   -0.50084E-05  3584   0.749E-05-0.170E-05
 gam= 0.603 trial= 0.509  step= 0.570 mean= 0.509
 gam= 0.428 g(H,U,f)=  0.318E-05 0.247E-07 0.000E+00 ort(H,U,f) =-0.110E-06 0.468E-07 0.000E+00
CGA:  23    -0.479340100527E+03   -0.18426E-05   -0.18446E-05  3584   0.321E-05-0.632E-07
 gam= 0.428 trial= 0.512  step= 0.357 mean= 0.512
 gam= 0.374 g(H,U,f)=  0.118E-05 0.226E-07 0.000E+00 ort(H,U,f) = 0.794E-06 0.100E-08 0.000E+00
CGA:  24    -0.479340101033E+03   -0.50573E-06   -0.56752E-06  3584   0.120E-05 0.795E-06
 gam= 0.374 trial= 0.504  step= 0.661 mean= 0.504
 gam= 0.760 g(H,U,f)=  0.896E-06 0.148E-07 0.000E+00 ort(H,U,f) =-0.388E-06 0.651E-08 0.000E+00
CGA:  25    -0.479340101498E+03   -0.46499E-06   -0.49456E-06  3584   0.911E-06-0.382E-06
 gam= 0.760 trial= 0.512  step= 0.595 mean= 0.512
 gam= 0.771 g(H,U,f)=  0.693E-06 0.928E-08 0.000E+00 ort(H,U,f) =-0.275E-06 0.373E-08 0.000E+00
CGA:  26    -0.479340101671E+03   -0.17340E-06   -0.18476E-06  3584   0.702E-06-0.272E-06
 gam= 0.771 trial= 0.516  step= 0.419 mean= 0.516
 gam= 0.564 g(H,U,f)=  0.389E-06 0.713E-08 0.000E+00 ort(H,U,f) =-0.594E-07 0.265E-08 0.000E+00
CGA:  27    -0.479340101778E+03   -0.10617E-06   -0.10335E-06  3584   0.396E-06-0.568E-07
 gam= 0.564 trial= 0.512  step= 2.225 mean= 0.512
 gam= 0.000 g(H,U,f)=  0.641E-05 0.194E-07 0.000E+00 ort(H,U,f) =-0.156E-05-0.180E-07 0.000E+00
CGA:  28    -0.479340100831E+03    0.94653E-06   -0.40481E-06  3584   0.643E-05-0.158E-05
 gam= 0.000 trial= 0.597  step= 0.309 mean= 0.597
 gam= 0.171 g(H,U,f)=  0.109E-05 0.114E-07 0.000E+00 ort(H,U,f) = 0.823E-06 0.143E-07 0.000E+00
CGA:  29    -0.479340101705E+03   -0.87368E-06   -0.99433E-06  3584   0.110E-05 0.838E-06
 gam= 0.171 trial= 0.583  step= 0.476 mean= 0.583
 gam= 0.215 g(H,U,f)=  0.229E-06 0.640E-08 0.000E+00 ort(H,U,f) =-0.441E-07 0.950E-08 0.000E+00
CGA:  30    -0.479340102002E+03   -0.29689E-06   -0.29500E-06  3584   0.236E-06-0.346E-07
 gam= 0.215 trial= 0.577  step= 0.194 mean= 0.577
 gam= 0.000 g(H,U,f)=  0.105E-06 0.477E-08 0.000E+00 ort(H,U,f) = 0.126E-06 0.729E-08 0.000E+00
CGA:  31    -0.479340101998E+03    0.35216E-08   -0.22091E-07  3584   0.110E-06 0.133E-06
 gam= 0.000 trial= 0.558  step= 0.271 mean= 0.558
 gam= 0.000 g(H,U,f)=  0.443E-07 0.362E-08 0.000E+00 ort(H,U,f) = 0.575E-07 0.415E-08 0.000E+00
CGA:  32    -0.479340102004E+03   -0.61009E-08   -0.14924E-07  3584   0.479E-07 0.616E-07
 gam= 0.000 trial= 0.544  step=-3.345 mean= 0.544
 BOPT < 0, no correction made
 gam= 0.000 g(H,U,f)=  0.255E-07 0.225E-08 0.000E+00 ort(H,U,f) = 0.273E-07 0.285E-08 0.000E+00
CGA:  33    -0.479340102032E+03   -0.28143E-07    0.80122E-07  3584   0.278E-07 0.301E-07
 gam= 0.000 trial= 0.544  step= 0.116 mean= 0.544
 gam= 0.000 g(H,U,f)=  0.211E-07 0.202E-08 0.000E+00 ort(H,U,f) = 0.231E-07 0.213E-08 0.000E+00
CGA:  34    -0.479340102029E+03    0.36634E-08   -0.16151E-08  3584   0.231E-07 0.252E-07
 gam= 0.000 trial= 0.523  step= 0.181 mean= 0.523
   1 F= -.47934010E+03 E0= -.47934010E+03  d E =0.000000E+00
Application 22292661 resources: utime ~34073212s, stime ~69147s, Rss ~252732, inblocks ~16395766, outblocks ~13620536
