 running on   24 total cores
 distrk:  each k-point on   24 cores,    1 groups
 distr:  one band on   24 cores,    1 groups
 using from now: INCAR     
 vasp.5.4.1 24Jun15 (build Nov 25 2015 16:39:35) complex                        
  
 POSCAR found :  2 types and       2 ions
 scaLAPACK will be used

 ----------------------------------------------------------------------------- 
|                                                                             |
|           W    W    AA    RRRRR   N    N  II  N    N   GGGG   !!!           |
|           W    W   A  A   R    R  NN   N  II  NN   N  G    G  !!!           |
|           W    W  A    A  R    R  N N  N  II  N N  N  G       !!!           |
|           W WW W  AAAAAA  RRRRR   N  N N  II  N  N N  G  GGG   !            |
|           WW  WW  A    A  R   R   N   NN  II  N   NN  G    G                |
|           W    W  A    A  R    R  N    N  II  N    N   GGGG   !!!           |
|                                                                             |
|      For optimal performance we recommend to set                            |
|        NCORE= 4 - approx SQRT( number of cores)                             |
|      NCORE specifies how many cores store one orbital (NPAR=cpu/NCORE).     |
|      This setting can  greatly improve the performance of VASP for DFT.     |
|      The default, NPAR=number of cores might be grossly inefficient         |
|      on modern multi-core architectures or massively parallel machines.     |
|      Do your own testing !!!!                                               |
|      Unfortunately you need to use the default for GW and RPA calculations. |
|      (for HF NCORE is supported but not extensively tested yet)             |
|                                                                             |
 ----------------------------------------------------------------------------- 

 LDA part: xc-table for Pade appr. of Perdew
 POSCAR, INCAR and KPOINTS ok, starting setup
 FFT: planning ...
 WAVECAR not read
 WARNING: random wavefunctions but no delay for mixing, default for NELMDL
 entering main loop
       N       E                     dE             d eps       ncg     rms          ort
DAV:   1     0.140143632376E+03    0.14014E+03   -0.85219E+03  6048   0.115E+03
DAV:   2     0.336900085127E+02   -0.10645E+03   -0.10188E+03  6048   0.268E+02
DAV:   3     0.285138377475E+02   -0.51762E+01   -0.51394E+01  6048   0.601E+01
DAV:   4     0.284252544911E+02   -0.88583E-01   -0.88526E-01  6048   0.608E+00
DAV:   5     0.284242997270E+02   -0.95476E-03   -0.95063E-03  6048   0.699E-01
 gam= 0.000 g(H,U,f)=        NaN       NaN       NaN ort(H,U,f) =       NaN       NaN       NaN
{    5,    1}:  On entry to {    4,    0}:  On entry to {    2,    0}:  On entry to {    3,    2}:  On entry to {    4,    1}:  On entry to {    1,    3}:  On entry to 

{    2,    1}:  On entry to 
PZSTEIN parameter number    4 had an illegal value 
PZSTEIN parameter number    4 had an illegal value {    2,    2}:  On entry to 
PZSTEIN parameter number    4 had an illegal value 

{    0,    1}:  On entry to PZSTEIN parameter number    4 had an illegal value 

{    1,    2}:  On entry to {    3,    1}:  On entry to 

{    2,    3}:  On entry to {    3,    0}:  On entry to {    1,    0}:  On entry to PZSTEIN parameter number    4 had an illegal value {    3,    3}:  On entry to 

{    5,    0}:  On entry to 
PZSTEIN parameter number    4 had an illegal value 
PZSTEIN parameter number    4 had an illegal value 

PZSTEIN parameter number    4 had an illegal value PZSTEIN parameter number    4 had an illegal value PZSTEIN parameter number    4 had an illegal value 


{    5,    3}:  On entry to {    0,    3}:  On entry to 
{    0,    2}:  On entry to 
PZSTEIN parameter number    4 had an illegal value 

PZSTEIN parameter number    4 had an illegal value PZSTEIN parameter number    4 had an illegal value 

{    4,    3}:  On entry to 

PZSTEIN parameter number    4 had an illegal value 
PZSTEIN parameter number    4 had an illegal value 

{    4,    2}:  On entry to PZSTEIN parameter number    4 had an illegal value 


PZSTEIN parameter number    4 had an illegal value PZSTEIN parameter number    4 had an illegal value 

PZSTEIN parameter number    4 had an illegal value 
{    0,    0}:  On entry to {    1,    1}:  On entry to 

PZSTEIN parameter number    4 had an illegal value 
{    5,    2}:  On entry to 
PZSTEIN parameter number    4 had an illegal value PZSTEIN parameter number    4 had an illegal value 




PZSTEIN parameter number    4 had an illegal value 
PZSTEIN parameter number    4 had an illegal value 
{    1,    1}:  On entry to {    1,    2}:  On entry to {    0,    1}:  On entry to {    5,    3}:  On entry to {    3,    0}:  On entry to {    3,    2}:  On entry to {    4,    0}:  On entry to 
{    1,    3}:  On entry to {    3,    3}:  On entry to PZUNMTR parameter number    5 had an illegal value 
{    4,    2}:  On entry to 
PZUNMTR parameter number    5 had an illegal value {    0,    2}:  On entry to 
{    5,    0}:  On entry to 


PZUNMTR parameter number    5 had an illegal value PZUNMTR parameter number    5 had an illegal value 

{    0,    0}:  On entry to 
{    4,    3}:  On entry to PZUNMTR parameter number    5 had an illegal value 

PZUNMTR parameter number    5 had an illegal value 
{    4,    1}:  On entry to 
{    3,    1}:  On entry to PZUNMTR parameter number    5 had an illegal value 


PZUNMTR parameter number    5 had an illegal value 
PZUNMTR parameter number    5 had an illegal value 
{    5,    1}:  On entry to  GSD%LWWORK         796        1768         168          28
 GSD%LWWORK         796        1768         168          28
 ERROR in subspace rotation PSSYEVX: not enough eigenvalues found         309
 ERROR in subspace rotation PSSYEVX: not enough eigenvalues found         309
 GSD%LWWORK         796        1768         168          28
          28
 GSD%LWWORK         796        1768         168          28
 ERROR in subspace rotation PSSYEVX: not enough eigenvalues found         309
 GSD%LWWORK         796        1768         168          28
          28
 GSD%LWWORK         796        1768         168          28
 ERROR in subspace rotation PSSYEVX: not enough eigenvalues found         309
 ERROR in subspace rotation PSSYEVX: not enough eigenvalues found         309
 ERROR in subspace rotation PSSYEVX: not enough eigenvalues found         309
          28
          28
          28
{    2,    0}:  On entry to 
{    2,    1}:  On entry to PZUNMTR parameter number    5 had an illegal value {    1,    0}:  On entry to 

PZUNMTR parameter number    5 had an illegal value 

PZUNMTR parameter number    5 had an illegal value 
{    2,    3}:  On entry to 

{    0,    3}:  On entry to PZUNMTR parameter number    5 had an illegal value PZUNMTR parameter number    5 had an illegal value 


PZUNMTR parameter number    5 had an illegal value 

 GSD%LWWORK         796        1768         168          28
 GSD%LWWORK         796        1768         168          28
PZUNMTR parameter number    5 had an illegal value  ERROR in subspace rotation PSSYEVX: not enough eigenvalues found         309
 ERROR in subspace rotation PSSYEVX: not enough eigenvalues found         309

          28
          28
 GSD%LWWORK         796        1768         168          28
PZUNMTR parameter number    5 had an illegal value  ERROR in subspace rotation PSSYEVX: not enough eigenvalues found         309

          28
 GSD%LWWORK         796        1768         168          28
 GSD%LWWORK         796        1768         168          28
{    5,    2}:  On entry to  ERROR in subspace rotation PSSYEVX: not enough eigenvalues found         309
 GSD%LWWORK         796        1768         168          28
 ERROR in subspace rotation PSSYEVX: not enough eigenvalues found         309

 ERROR in subspace rotation PSSYEVX: not enough eigenvalues found         309
          28
          28
 GSD%LWWORK         796        1768         168          28
          28
PZUNMTR parameter number    5 had an illegal value  ERROR in subspace rotation PSSYEVX: not enough eigenvalues found         309

{    2,    2}:  On entry to           28
 GSD%LWWORK         796        1768         168          28

 ERROR in subspace rotation PSSYEVX: not enough eigenvalues found         309
PZUNMTR parameter number    5 had an illegal value           28
PZUNMTR parameter number    5 had an illegal value 


 GSD%LWWORK         796        1768         168          28
PZUNMTR parameter number    5 had an illegal value 
 ERROR in subspace rotation PSSYEVX: not enough eigenvalues found         309
          28

 GSD%LWWORK         796        1768         168          28
 GSD%LWWORK         796        1768         168          28

 ERROR in subspace rotation PSSYEVX: not enough eigenvalues found         309
 ERROR in subspace rotation PSSYEVX: not enough eigenvalues found         309
          28
PZUNMTR parameter number    5 had an illegal value           28

 GSD%LWWORK         796        1768         168          28

 ERROR in subspace rotation PSSYEVX: not enough eigenvalues found         309
PZUNMTR parameter number    5 had an illegal value           28

 GSD%LWWORK         796        1768         168          28

 ERROR in subspace rotation PSSYEVX: not enough eigenvalues found         309
          28
PZUNMTR parameter number    5 had an illegal value 
          28
 GSD%LWWORK         796        1768         168          28
 ERROR in subspace rotation PSSYEVX: not enough eigenvalues found         309
          28
 GSD%LWWORK         796        1768         168          28
 GSD%LWWORK         796        1768         168          28
 ERROR in subspace rotation PSSYEVX: not enough eigenvalues found         309
          28
 GSD%LWWORK         796        1768         168          28
 GSD%LWWORK         796        1768         168          28
 ERROR in subspace rotation PSSYEVX: not enough eigenvalues found         309
 ERROR in subspace rotation PSSYEVX: not enough eigenvalues found         309
          28
          28
 ERROR in subspace rotation PSSYEVX: not enough eigenvalues found         309
          28
Application 23457673 resources: utime ~66630s, stime ~432s, Rss ~198688, inblocks ~145063, outblocks ~193724
