  12  12   1   0
  0.2070820E+02  0.6290120E-09  0.6273890E-09  0.6297040E-09  0.5000000E-15
  1.000000000000000E-004
  CAR 
 Name                                    
     17.06811927    -22.65003366  301      1.32980117      1.00000000
    -22.650  0.0000E+00  0.0000E+00
    -22.518  0.0000E+00  0.0000E+00
    -22.385  0.0000E+00  0.0000E+00
    -22.253  0.0000E+00  0.0000E+00
    -22.120  0.0000E+00  0.0000E+00
    -21.988  0.0000E+00  0.0000E+00
    -21.856  0.0000E+00  0.0000E+00
    -21.723  0.0000E+00  0.0000E+00
    -21.591  0.0000E+00  0.0000E+00
    -21.458  0.0000E+00  0.0000E+00
    -21.326  0.0000E+00  0.0000E+00
    -21.194  0.0000E+00  0.0000E+00
    -21.061  0.0000E+00  0.0000E+00
    -20.929  0.0000E+00  0.0000E+00
    -20.797  0.1511E+02  0.2000E+01
    -20.664  0.0000E+00  0.2000E+01
    -20.532  0.0000E+00  0.2000E+01
    -20.399  0.0000E+00  0.2000E+01
    -20.267  0.0000E+00  0.2000E+01
    -20.135  0.0000E+00  0.2000E+01
    -20.002  0.0000E+00  0.2000E+01
    -19.870  0.0000E+00  0.2000E+01
    -19.737  0.0000E+00  0.2000E+01
    -19.605  0.0000E+00  0.2000E+01
    -19.473  0.0000E+00  0.2000E+01
    -19.340  0.0000E+00  0.2000E+01
    -19.208  0.0000E+00  0.2000E+01
    -19.075  0.0000E+00  0.2000E+01
    -18.943  0.0000E+00  0.2000E+01
    -18.811  0.0000E+00  0.2000E+01
    -18.678  0.0000E+00  0.2000E+01
    -18.546  0.0000E+00  0.2000E+01
    -18.413  0.0000E+00  0.2000E+01
    -18.281  0.0000E+00  0.2000E+01
    -18.149  0.0000E+00  0.2000E+01
    -18.016  0.0000E+00  0.2000E+01
    -17.884  0.0000E+00  0.2000E+01
    -17.751  0.0000E+00  0.2000E+01
    -17.619  0.0000E+00  0.2000E+01
    -17.487  0.0000E+00  0.2000E+01
    -17.354  0.0000E+00  0.2000E+01
    -17.222  0.5090E-13  0.2000E+01
    -17.089  0.4489E+02  0.7998E+01
    -16.957  0.0000E+00  0.1200E+02
    -16.825  0.0000E+00  0.1200E+02
    -16.692  0.0000E+00  0.1200E+02
    -16.560  0.0000E+00  0.1200E+02
    -16.428  0.0000E+00  0.1200E+02
    -16.295  0.0000E+00  0.1200E+02
    -16.163  0.0000E+00  0.1200E+02
    -16.030  0.0000E+00  0.1200E+02
    -15.898  0.0000E+00  0.1200E+02
    -15.766  0.0000E+00  0.1200E+02
    -15.633  0.0000E+00  0.1200E+02
    -15.501  0.0000E+00  0.1200E+02
    -15.368  0.0000E+00  0.1200E+02
    -15.236  0.0000E+00  0.1200E+02
    -15.104  0.0000E+00  0.1200E+02
    -14.971  0.0000E+00  0.1200E+02
    -14.839  0.0000E+00  0.1200E+02
    -14.706  0.0000E+00  0.1200E+02
    -14.574  0.0000E+00  0.1200E+02
    -14.442  0.0000E+00  0.1200E+02
    -14.309  0.0000E+00  0.1200E+02
    -14.177  0.0000E+00  0.1200E+02
    -14.044  0.0000E+00  0.1200E+02
    -13.912  0.0000E+00  0.1200E+02
    -13.780  0.0000E+00  0.1200E+02
    -13.647  0.0000E+00  0.1200E+02
    -13.515  0.0000E+00  0.1200E+02
    -13.382  0.7659E-06  0.1200E+02
    -13.250  0.1322E+02  0.1400E+02
    -13.118  0.0000E+00  0.1400E+02
    -12.985  0.0000E+00  0.1400E+02
    -12.853  0.0000E+00  0.1400E+02
    -12.720  0.0000E+00  0.1400E+02
    -12.588  0.0000E+00  0.1400E+02
    -12.456  0.0000E+00  0.1400E+02
    -12.323  0.2800E+00  0.1404E+02
    -12.191  0.1188E+01  0.1433E+02
    -12.059  0.3614E+01  0.1521E+02
    -11.926  0.3376E+01  0.1597E+02
    -11.794  0.5291E+01  0.1682E+02
    -11.661  0.1892E+01  0.1758E+02
    -11.529  0.6291E+00  0.1803E+02
    -11.397  0.5571E+01  0.1930E+02
    -11.264  0.1678E+01  0.2000E+02
    -11.132  0.0000E+00  0.2000E+02
    -10.999  0.0000E+00  0.2000E+02
    -10.867  0.0000E+00  0.2000E+02
    -10.735  0.0000E+00  0.2000E+02
    -10.602  0.0000E+00  0.2000E+02
    -10.470  0.0000E+00  0.2000E+02
    -10.337  0.0000E+00  0.2000E+02
    -10.205  0.0000E+00  0.2000E+02
    -10.073  0.0000E+00  0.2000E+02
     -9.940  0.0000E+00  0.2000E+02
     -9.808  0.0000E+00  0.2000E+02
     -9.675  0.0000E+00  0.2000E+02
     -9.543  0.0000E+00  0.2000E+02
     -9.411  0.0000E+00  0.2000E+02
     -9.278  0.8793E-02  0.2000E+02
     -9.146  0.7473E+01  0.2199E+02
     -9.013  0.1424E+02  0.2400E+02
     -8.881  0.0000E+00  0.2400E+02
     -8.749  0.0000E+00  0.2400E+02
     -8.616  0.0000E+00  0.2400E+02
     -8.484  0.0000E+00  0.2400E+02
     -8.351  0.0000E+00  0.2400E+02
     -8.219  0.0000E+00  0.2400E+02
     -8.087  0.1510E-09  0.2400E+02
     -7.954  0.6988E-16  0.2401E+02
     -7.822  0.4196E+00  0.2406E+02
     -7.690  0.8392E+00  0.2418E+02
     -7.557  0.7486E+00  0.2428E+02
     -7.425  0.5007E+00  0.2437E+02
     -7.292  0.6853E+00  0.2463E+02
     -7.160  0.6995E+00  0.2489E+02
     -7.028  0.1398E+02  0.2690E+02
     -6.895  0.1999E+01  0.2738E+02
     -6.763  0.4333E+00  0.2750E+02
     -6.630  0.3857E+00  0.2773E+02
     -6.498  0.4196E+00  0.2782E+02
     -6.366  0.8392E+00  0.2794E+02
     -6.233  0.2697E+00  0.2797E+02
     -6.101  0.0000E+00  0.2799E+02
     -5.968  0.6994E-01  0.2800E+02
     -5.836  0.0000E+00  0.2800E+02
     -5.704  0.0000E+00  0.2800E+02
     -5.571  0.0000E+00  0.2800E+02
     -5.439  0.0000E+00  0.2800E+02
     -5.306  0.0000E+00  0.2800E+02
     -5.174  0.0000E+00  0.2800E+02
     -5.042  0.0000E+00  0.2800E+02
     -4.909  0.0000E+00  0.2800E+02
     -4.777  0.8095E+01  0.2907E+02
     -4.644  0.2098E+00  0.3200E+02
     -4.512  0.0000E+00  0.3200E+02
     -4.380  0.0000E+00  0.3200E+02
     -4.247  0.0000E+00  0.3200E+02
     -4.115  0.0000E+00  0.3200E+02
     -3.983  0.0000E+00  0.3200E+02
     -3.850  0.0000E+00  0.3200E+02
     -3.718  0.0000E+00  0.3200E+02
     -3.585  0.0000E+00  0.3200E+02
     -3.453  0.0000E+00  0.3200E+02
     -3.321  0.0000E+00  0.3200E+02
     -3.188  0.0000E+00  0.3200E+02
     -3.056  0.0000E+00  0.3200E+02
     -2.923  0.0000E+00  0.3200E+02
     -2.791  0.5866E+00  0.3208E+02
     -2.659  0.2791E+01  0.3254E+02
     -2.526  0.1533E+01  0.3288E+02
     -2.394  0.1524E+01  0.3321E+02
     -2.261  0.2269E+01  0.3362E+02
     -2.129  0.3142E+01  0.3425E+02
     -1.997  0.1993E+01  0.3476E+02
     -1.864  0.5528E+00  0.3500E+02
     -1.732  0.1198E-01  0.3500E+02
     -1.599  0.7722E+00  0.3513E+02
     -1.467  0.2536E+01  0.3574E+02
     -1.335  0.5769E+01  0.3696E+02
     -1.202  0.2710E+01  0.3782E+02
     -1.070  0.2272E+01  0.3840E+02
     -0.937  0.3272E+01  0.3922E+02
     -0.805  0.5506E+01  0.4017E+02
     -0.673  0.5078E+01  0.4135E+02
     -0.540  0.4040E+01  0.4219E+02
     -0.408  0.5202E+01  0.4361E+02
     -0.275  0.6311E+01  0.4492E+02
     -0.143  0.6409E+01  0.4606E+02
     -0.011  0.4106E+01  0.4731E+02
      0.122  0.5163E+01  0.4845E+02
      0.254  0.3034E+01  0.4906E+02
      0.386  0.2797E+00  0.4932E+02
      0.519  0.2029E+01  0.4960E+02
      0.651  0.8654E+00  0.4974E+02
      0.784  0.1891E+00  0.4985E+02
      0.916  0.2357E+00  0.4991E+02
      1.048  0.1464E+00  0.4997E+02
      1.181  0.0000E+00  0.4999E+02
      1.313  0.6994E-01  0.5000E+02
      1.446  0.0000E+00  0.5000E+02
      1.578  0.0000E+00  0.5000E+02
      1.710  0.0000E+00  0.5000E+02
      1.843  0.0000E+00  0.5000E+02
      1.975  0.0000E+00  0.5000E+02
      2.108  0.0000E+00  0.5000E+02
      2.240  0.0000E+00  0.5000E+02
      2.372  0.0000E+00  0.5000E+02
      2.505  0.0000E+00  0.5000E+02
      2.637  0.0000E+00  0.5000E+02
      2.770  0.0000E+00  0.5000E+02
      2.902  0.0000E+00  0.5000E+02
      3.034  0.0000E+00  0.5000E+02
      3.167  0.0000E+00  0.5000E+02
      3.299  0.1214E+00  0.5002E+02
      3.432  0.5599E+00  0.5009E+02
      3.564  0.7693E+00  0.5025E+02
      3.696  0.8408E+00  0.5038E+02
      3.829  0.7329E+00  0.5068E+02
      3.961  0.8319E+00  0.5086E+02
      4.094  0.6042E+00  0.5098E+02
      4.226  0.0000E+00  0.5106E+02
      4.358  0.1237E+01  0.5122E+02
      4.491  0.1128E+01  0.5137E+02
      4.623  0.1893E+01  0.5177E+02
      4.755  0.1620E+01  0.5208E+02
      4.888  0.2135E+01  0.5260E+02
      5.020  0.1086E+01  0.5292E+02
      5.153  0.3513E-03  0.5298E+02
      5.285  0.0000E+00  0.5300E+02
      5.417  0.0000E+00  0.5300E+02
      5.550  0.6918E-01  0.5301E+02
      5.682  0.1390E+00  0.5303E+02
      5.815  0.4712E+00  0.5309E+02
      5.947  0.2014E+01  0.5347E+02
      6.079  0.2533E+01  0.5408E+02
      6.212  0.2325E+01  0.5453E+02
      6.344  0.2391E+01  0.5505E+02
      6.477  0.2787E+01  0.5551E+02
      6.609  0.3526E+01  0.5607E+02
      6.741  0.2247E+01  0.5651E+02
      6.874  0.3227E+01  0.5734E+02
      7.006  0.3616E+01  0.5804E+02
      7.139  0.3209E+01  0.5875E+02
      7.271  0.4663E+01  0.5974E+02
      7.403  0.1778E+01  0.6020E+02
      7.536  0.3209E+01  0.6078E+02
      7.668  0.3570E+01  0.6153E+02
      7.801  0.3870E+01  0.6239E+02
      7.933  0.2916E+01  0.6310E+02
      8.065  0.2976E+01  0.6386E+02
      8.198  0.4770E+01  0.6469E+02
      8.330  0.3694E+01  0.6547E+02
      8.463  0.4260E+01  0.6640E+02
      8.595  0.3058E+01  0.6692E+02
      8.727  0.3150E+01  0.6757E+02
      8.860  0.4049E+01  0.6842E+02
      8.992  0.4212E+01  0.6931E+02
      9.124  0.4371E+01  0.7022E+02
      9.257  0.5430E+01  0.7128E+02
      9.389  0.2751E+01  0.7206E+02
      9.522  0.4454E+01  0.7306E+02
      9.654  0.3404E+01  0.7386E+02
      9.786  0.4427E+01  0.7471E+02
      9.919  0.2851E+01  0.7574E+02
     10.051  0.3329E+01  0.7649E+02
     10.184  0.3475E+01  0.7733E+02
     10.316  0.3906E+01  0.7803E+02
     10.448  0.4317E+01  0.7897E+02
     10.581  0.4278E+01  0.7974E+02
     10.713  0.4742E+01  0.8073E+02
     10.846  0.3714E+01  0.8151E+02
     10.978  0.3581E+01  0.8242E+02
     11.110  0.3649E+01  0.8332E+02
     11.243  0.4001E+01  0.8415E+02
     11.375  0.3176E+01  0.8483E+02
     11.508  0.3837E+01  0.8565E+02
     11.640  0.4469E+01  0.8645E+02
     11.772  0.3240E+01  0.8710E+02
     11.905  0.2270E+01  0.8757E+02
     12.037  0.3705E+01  0.8824E+02
     12.170  0.3189E+01  0.8899E+02
     12.302  0.2911E+01  0.8987E+02
     12.434  0.3011E+01  0.9068E+02
     12.567  0.3600E+01  0.9152E+02
     12.699  0.3121E+01  0.9232E+02
     12.832  0.4177E+01  0.9330E+02
     12.964  0.4076E+01  0.9436E+02
     13.096  0.4081E+01  0.9514E+02
     13.229  0.4075E+01  0.9608E+02
     13.361  0.3802E+01  0.9682E+02
     13.493  0.3564E+01  0.9755E+02
     13.626  0.3384E+01  0.9831E+02
     13.758  0.2811E+01  0.9907E+02
     13.891  0.3753E+01  0.9990E+02
     14.023  0.3401E+01  0.1007E+03
     14.155  0.3085E+01  0.1013E+03
     14.288  0.2678E+01  0.1020E+03
     14.420  0.2269E+01  0.1026E+03
     14.553  0.2378E+01  0.1032E+03
     14.685  0.1559E+01  0.1035E+03
     14.817  0.5935E+00  0.1038E+03
     14.950  0.4678E+00  0.1039E+03
     15.082  0.2797E+00  0.1040E+03
     15.215  0.1977E+00  0.1040E+03
     15.347  0.0000E+00  0.1040E+03
     15.479  0.0000E+00  0.1040E+03
     15.612  0.0000E+00  0.1040E+03
     15.744  0.0000E+00  0.1040E+03
     15.877  0.0000E+00  0.1040E+03
     16.009  0.0000E+00  0.1040E+03
     16.141  0.0000E+00  0.1040E+03
     16.274  0.0000E+00  0.1040E+03
     16.406  0.0000E+00  0.1040E+03
     16.539  0.0000E+00  0.1040E+03
     16.671  0.0000E+00  0.1040E+03
     16.803  0.0000E+00  0.1040E+03
     16.936  0.0000E+00  0.1040E+03
     17.068  0.0000E+00  0.1040E+03
     17.06811927    -22.65003366  301      1.32980117      1.00000000
    -22.650  0.0000E+00  0.0000E+00  0.0000E+00
    -22.518  0.0000E+00  0.0000E+00  0.0000E+00
    -22.385  0.0000E+00  0.0000E+00  0.0000E+00
    -22.253  0.0000E+00  0.0000E+00  0.0000E+00
    -22.120  0.0000E+00  0.0000E+00  0.0000E+00
    -21.988  0.0000E+00  0.0000E+00  0.0000E+00
    -21.856  0.0000E+00  0.0000E+00  0.0000E+00
    -21.723  0.0000E+00  0.0000E+00  0.0000E+00
    -21.591  0.0000E+00  0.0000E+00  0.0000E+00
    -21.458  0.0000E+00  0.0000E+00  0.0000E+00
    -21.326  0.0000E+00  0.0000E+00  0.0000E+00
    -21.194  0.0000E+00  0.0000E+00  0.0000E+00
    -21.061  0.0000E+00  0.0000E+00  0.0000E+00
    -20.929  0.0000E+00  0.0000E+00  0.0000E+00
    -20.797  0.9104E+00  0.2775E+00  0.0000E+00
    -20.664  0.0000E+00  0.0000E+00  0.0000E+00
    -20.532  0.0000E+00  0.0000E+00  0.0000E+00
    -20.399  0.0000E+00  0.0000E+00  0.0000E+00
    -20.267  0.0000E+00  0.0000E+00  0.0000E+00
    -20.135  0.0000E+00  0.0000E+00  0.0000E+00
    -20.002  0.0000E+00  0.0000E+00  0.0000E+00
    -19.870  0.0000E+00  0.0000E+00  0.0000E+00
    -19.737  0.0000E+00  0.0000E+00  0.0000E+00
    -19.605  0.0000E+00  0.0000E+00  0.0000E+00
    -19.473  0.0000E+00  0.0000E+00  0.0000E+00
    -19.340  0.0000E+00  0.0000E+00  0.0000E+00
    -19.208  0.0000E+00  0.0000E+00  0.0000E+00
    -19.075  0.0000E+00  0.0000E+00  0.0000E+00
    -18.943  0.0000E+00  0.0000E+00  0.0000E+00
    -18.811  0.0000E+00  0.0000E+00  0.0000E+00
    -18.678  0.0000E+00  0.0000E+00  0.0000E+00
    -18.546  0.0000E+00  0.0000E+00  0.0000E+00
    -18.413  0.0000E+00  0.0000E+00  0.0000E+00
    -18.281  0.0000E+00  0.0000E+00  0.0000E+00
    -18.149  0.0000E+00  0.0000E+00  0.0000E+00
    -18.016  0.0000E+00  0.0000E+00  0.0000E+00
    -17.884  0.0000E+00  0.0000E+00  0.0000E+00
    -17.751  0.0000E+00  0.0000E+00  0.0000E+00
    -17.619  0.0000E+00  0.0000E+00  0.0000E+00
    -17.487  0.0000E+00  0.0000E+00  0.0000E+00
    -17.354  0.0000E+00  0.0000E+00  0.0000E+00
    -17.222  0.1086E-20  0.4853E-21  0.0000E+00
    -17.089  0.2265E-04  0.2937E-05  0.0000E+00
    -16.957  0.0000E+00  0.0000E+00  0.0000E+00
    -16.825  0.0000E+00  0.0000E+00  0.0000E+00
    -16.692  0.0000E+00  0.0000E+00  0.0000E+00
    -16.560  0.0000E+00  0.0000E+00  0.0000E+00
    -16.428  0.0000E+00  0.0000E+00  0.0000E+00
    -16.295  0.0000E+00  0.0000E+00  0.0000E+00
    -16.163  0.0000E+00  0.0000E+00  0.0000E+00
    -16.030  0.0000E+00  0.0000E+00  0.0000E+00
    -15.898  0.0000E+00  0.0000E+00  0.0000E+00
    -15.766  0.0000E+00  0.0000E+00  0.0000E+00
    -15.633  0.0000E+00  0.0000E+00  0.0000E+00
    -15.501  0.0000E+00  0.0000E+00  0.0000E+00
    -15.368  0.0000E+00  0.0000E+00  0.0000E+00
    -15.236  0.0000E+00  0.0000E+00  0.0000E+00
    -15.104  0.0000E+00  0.0000E+00  0.0000E+00
    -14.971  0.0000E+00  0.0000E+00  0.0000E+00
    -14.839  0.0000E+00  0.0000E+00  0.0000E+00
    -14.706  0.0000E+00  0.0000E+00  0.0000E+00
    -14.574  0.0000E+00  0.0000E+00  0.0000E+00
    -14.442  0.0000E+00  0.0000E+00  0.0000E+00
    -14.309  0.0000E+00  0.0000E+00  0.0000E+00
    -14.177  0.0000E+00  0.0000E+00  0.0000E+00
    -14.044  0.0000E+00  0.0000E+00  0.0000E+00
    -13.912  0.0000E+00  0.0000E+00  0.0000E+00
    -13.780  0.0000E+00  0.0000E+00  0.0000E+00
    -13.647  0.0000E+00  0.0000E+00  0.0000E+00
    -13.515  0.0000E+00  0.0000E+00  0.0000E+00
    -13.382  0.2524E-06  0.1617E-09  0.0000E+00
    -13.250  0.4524E+01  0.3345E-02  0.0000E+00
    -13.118  0.0000E+00  0.0000E+00  0.0000E+00
    -12.985  0.0000E+00  0.0000E+00  0.0000E+00
    -12.853  0.0000E+00  0.0000E+00  0.0000E+00
    -12.720  0.0000E+00  0.0000E+00  0.0000E+00
    -12.588  0.0000E+00  0.0000E+00  0.0000E+00
    -12.456  0.0000E+00  0.0000E+00  0.0000E+00
    -12.323  0.5141E-03  0.1800E-03  0.0000E+00
    -12.191  0.4583E-02  0.6272E-03  0.0000E+00
    -12.059  0.1489E-01  0.1309E-02  0.0000E+00
    -11.926  0.2511E-02  0.8360E-03  0.0000E+00
    -11.794  0.9515E-02  0.1681E-02  0.0000E+00
    -11.661  0.1773E-02  0.4106E-03  0.0000E+00
    -11.529  0.5489E-05  0.4057E-04  0.0000E+00
    -11.397  0.2958E-02  0.3853E-03  0.0000E+00
    -11.264  0.1806E-02  0.1678E-03  0.0000E+00
    -11.132  0.0000E+00  0.0000E+00  0.0000E+00
    -10.999  0.0000E+00  0.0000E+00  0.0000E+00
    -10.867  0.0000E+00  0.0000E+00  0.0000E+00
    -10.735  0.0000E+00  0.0000E+00  0.0000E+00
    -10.602  0.0000E+00  0.0000E+00  0.0000E+00
    -10.470  0.0000E+00  0.0000E+00  0.0000E+00
    -10.337  0.0000E+00  0.0000E+00  0.0000E+00
    -10.205  0.0000E+00  0.0000E+00  0.0000E+00
    -10.073  0.0000E+00  0.0000E+00  0.0000E+00
     -9.940  0.0000E+00  0.0000E+00  0.0000E+00
     -9.808  0.0000E+00  0.0000E+00  0.0000E+00
     -9.675  0.0000E+00  0.0000E+00  0.0000E+00
     -9.543  0.0000E+00  0.0000E+00  0.0000E+00
     -9.411  0.0000E+00  0.0000E+00  0.0000E+00
     -9.278  0.3261E-11  0.3693E-03  0.0000E+00
     -9.146  0.3869E-04  0.3210E+00  0.0000E+00
     -9.013  0.1395E-03  0.6488E+00  0.0000E+00
     -8.881  0.0000E+00  0.0000E+00  0.0000E+00
     -8.749  0.0000E+00  0.0000E+00  0.0000E+00
     -8.616  0.0000E+00  0.0000E+00  0.0000E+00
     -8.484  0.0000E+00  0.0000E+00  0.0000E+00
     -8.351  0.0000E+00  0.0000E+00  0.0000E+00
     -8.219  0.0000E+00  0.0000E+00  0.0000E+00
     -8.087  0.6045E-19  0.7530E-14  0.0000E+00
     -7.954  0.2459E-25  0.6884E-20  0.0000E+00
     -7.822  0.9379E-08  0.3654E-04  0.0000E+00
     -7.690  0.9835E-05  0.1319E-03  0.0000E+00
     -7.557  0.2855E-04  0.3893E-03  0.0000E+00
     -7.425  0.7184E-04  0.7225E-03  0.0000E+00
     -7.292  0.3216E-03  0.4687E-02  0.0000E+00
     -7.160  0.1410E-03  0.2124E-02  0.0000E+00
     -7.028  0.1661E+00  0.2741E+01  0.0000E+00
     -6.895  0.3161E-02  0.5487E-01  0.0000E+00
     -6.763  0.2102E-03  0.3780E-02  0.0000E+00
     -6.630  0.1368E-03  0.2673E-02  0.0000E+00
     -6.498  0.1037E-03  0.1986E-02  0.0000E+00
     -6.366  0.2457E-03  0.4200E-02  0.0000E+00
     -6.233  0.5240E-04  0.9260E-03  0.0000E+00
     -6.101  0.0000E+00  0.0000E+00  0.0000E+00
     -5.968  0.8912E-05  0.1693E-03  0.0000E+00
     -5.836  0.0000E+00  0.0000E+00  0.0000E+00
     -5.704  0.0000E+00  0.0000E+00  0.0000E+00
     -5.571  0.0000E+00  0.0000E+00  0.0000E+00
     -5.439  0.0000E+00  0.0000E+00  0.0000E+00
     -5.306  0.0000E+00  0.0000E+00  0.0000E+00
     -5.174  0.0000E+00  0.0000E+00  0.0000E+00
     -5.042  0.0000E+00  0.0000E+00  0.0000E+00
     -4.909  0.0000E+00  0.0000E+00  0.0000E+00
     -4.777  0.2000E-04  0.2166E+01  0.0000E+00
     -4.644  0.9417E-06  0.5621E-01  0.0000E+00
     -4.512  0.0000E+00  0.0000E+00  0.0000E+00
     -4.380  0.0000E+00  0.0000E+00  0.0000E+00
     -4.247  0.0000E+00  0.0000E+00  0.0000E+00
     -4.115  0.0000E+00  0.0000E+00  0.0000E+00
     -3.983  0.0000E+00  0.0000E+00  0.0000E+00
     -3.850  0.0000E+00  0.0000E+00  0.0000E+00
     -3.718  0.0000E+00  0.0000E+00  0.0000E+00
     -3.585  0.0000E+00  0.0000E+00  0.0000E+00
     -3.453  0.0000E+00  0.0000E+00  0.0000E+00
     -3.321  0.0000E+00  0.0000E+00  0.0000E+00
     -3.188  0.0000E+00  0.0000E+00  0.0000E+00
     -3.056  0.0000E+00  0.0000E+00  0.0000E+00
     -2.923  0.0000E+00  0.0000E+00  0.0000E+00
     -2.791  0.8455E-05  0.9908E-03  0.0000E+00
     -2.659  0.2639E-03  0.5187E-02  0.0000E+00
     -2.526  0.1360E-03  0.2982E-02  0.0000E+00
     -2.394  0.1684E-03  0.1926E-02  0.0000E+00
     -2.261  0.2334E-03  0.3631E-02  0.0000E+00
     -2.129  0.3330E-03  0.3941E-02  0.0000E+00
     -1.997  0.1597E-03  0.2755E-02  0.0000E+00
     -1.864  0.4268E-04  0.1213E-02  0.0000E+00
     -1.732  0.2577E-04  0.2036E-04  0.0000E+00
     -1.599  0.1189E-02  0.3337E-02  0.0000E+00
     -1.467  0.2045E-02  0.1011E-01  0.0000E+00
     -1.335  0.5028E-02  0.2120E-01  0.0000E+00
     -1.202  0.1816E-02  0.1071E-01  0.0000E+00
     -1.070  0.1060E-02  0.7423E-02  0.0000E+00
     -0.937  0.9751E-03  0.9619E-02  0.0000E+00
     -0.805  0.1077E-02  0.1341E-01  0.0000E+00
     -0.673  0.5003E-03  0.1014E-01  0.0000E+00
     -0.540  0.6684E-03  0.7852E-02  0.0000E+00
     -0.408  0.6971E-03  0.8969E-02  0.0000E+00
     -0.275  0.1086E-02  0.1222E-01  0.0000E+00
     -0.143  0.1198E-02  0.1421E-01  0.0000E+00
     -0.011  0.1145E-02  0.9348E-02  0.0000E+00
      0.122  0.1252E-02  0.5407E-02  0.0000E+00
      0.254  0.6387E-03  0.3110E-02  0.0000E+00
      0.386  0.1501E-04  0.9372E-04  0.0000E+00
      0.519  0.1957E-03  0.1150E-02  0.0000E+00
      0.651  0.7810E-04  0.4563E-03  0.0000E+00
      0.784  0.2050E-05  0.3767E-04  0.0000E+00
      0.916  0.8277E-05  0.1795E-03  0.0000E+00
      1.048  0.7514E-09  0.4855E-04  0.0000E+00
      1.181  0.0000E+00  0.0000E+00  0.0000E+00
      1.313  0.8911E-12  0.4234E-05  0.0000E+00
      1.446  0.0000E+00  0.0000E+00  0.0000E+00
      1.578  0.0000E+00  0.0000E+00  0.0000E+00
      1.710  0.0000E+00  0.0000E+00  0.0000E+00
      1.843  0.0000E+00  0.0000E+00  0.0000E+00
      1.975  0.0000E+00  0.0000E+00  0.0000E+00
      2.108  0.0000E+00  0.0000E+00  0.0000E+00
      2.240  0.0000E+00  0.0000E+00  0.0000E+00
      2.372  0.0000E+00  0.0000E+00  0.0000E+00
      2.505  0.0000E+00  0.0000E+00  0.0000E+00
      2.637  0.0000E+00  0.0000E+00  0.0000E+00
      2.770  0.0000E+00  0.0000E+00  0.0000E+00
      2.902  0.0000E+00  0.0000E+00  0.0000E+00
      3.034  0.0000E+00  0.0000E+00  0.0000E+00
      3.167  0.0000E+00  0.0000E+00  0.0000E+00
      3.299  0.5971E-05  0.1247E-04  0.0000E+00
      3.432  0.2348E-04  0.7161E-04  0.0000E+00
      3.564  0.3346E-04  0.1485E-03  0.0000E+00
      3.696  0.2920E-04  0.1407E-03  0.0000E+00
      3.829  0.6205E-04  0.1488E-03  0.0000E+00
      3.961  0.1577E-03  0.2695E-03  0.0000E+00
      4.094  0.1559E-03  0.2668E-03  0.0000E+00
      4.226  0.0000E+00  0.0000E+00  0.0000E+00
      4.358  0.2807E-04  0.2140E-03  0.0000E+00
      4.491  0.4309E-04  0.2534E-03  0.0000E+00
      4.623  0.4011E-04  0.3719E-03  0.0000E+00
      4.755  0.8994E-04  0.4062E-03  0.0000E+00
      4.888  0.1649E-03  0.5263E-03  0.0000E+00
      5.020  0.8576E-04  0.3587E-03  0.0000E+00
      5.153  0.4103E-07  0.9742E-07  0.0000E+00
      5.285  0.0000E+00  0.0000E+00  0.0000E+00
      5.417  0.0000E+00  0.0000E+00  0.0000E+00
      5.550  0.1930E-02  0.9138E-03  0.0000E+00
      5.682  0.3137E-02  0.1947E-02  0.0000E+00
      5.815  0.1002E-01  0.6683E-02  0.0000E+00
      5.947  0.1431E-01  0.1377E-01  0.0000E+00
      6.079  0.4551E-02  0.7355E-02  0.0000E+00
      6.212  0.7045E-02  0.7557E-02  0.0000E+00
      6.344  0.1077E-01  0.1450E-01  0.0000E+00
      6.477  0.3154E-01  0.2654E-01  0.0000E+00
      6.609  0.2641E-01  0.3031E-01  0.0000E+00
      6.741  0.1110E-01  0.2152E-01  0.0000E+00
      6.874  0.2971E-01  0.3563E-01  0.0000E+00
      7.006  0.8201E-01  0.2619E-01  0.0000E+00
      7.139  0.3567E-01  0.2985E-01  0.0000E+00
      7.271  0.8359E-01  0.4849E-01  0.0000E+00
      7.403  0.2608E-01  0.1790E-01  0.0000E+00
      7.536  0.3123E-01  0.4347E-01  0.0000E+00
      7.668  0.1506E-01  0.5426E-01  0.0000E+00
      7.801  0.1885E-01  0.5856E-01  0.0000E+00
      7.933  0.2157E-01  0.4819E-01  0.0000E+00
      8.065  0.8568E-02  0.4848E-01  0.0000E+00
      8.198  0.1565E-01  0.8052E-01  0.0000E+00
      8.330  0.1155E-01  0.6934E-01  0.0000E+00
      8.463  0.2369E-01  0.8179E-01  0.0000E+00
      8.595  0.9423E-02  0.6078E-01  0.0000E+00
      8.727  0.1717E-01  0.7062E-01  0.0000E+00
      8.860  0.1020E-01  0.1088E+00  0.0000E+00
      8.992  0.1115E-01  0.9142E-01  0.0000E+00
      9.124  0.2318E-01  0.7691E-01  0.0000E+00
      9.257  0.2897E-01  0.1147E+00  0.0000E+00
      9.389  0.1946E-01  0.5510E-01  0.0000E+00
      9.522  0.1518E-01  0.9693E-01  0.0000E+00
      9.654  0.2043E-01  0.7582E-01  0.0000E+00
      9.786  0.2940E-01  0.9215E-01  0.0000E+00
      9.919  0.1379E-01  0.6723E-01  0.0000E+00
     10.051  0.2431E-01  0.1056E+00  0.0000E+00
     10.184  0.1777E-01  0.8508E-01  0.0000E+00
     10.316  0.2323E-01  0.1104E+00  0.0000E+00
     10.448  0.3718E-01  0.1587E+00  0.0000E+00
     10.581  0.3358E-01  0.2411E+00  0.0000E+00
     10.713  0.2426E-01  0.1406E+00  0.0000E+00
     10.846  0.1396E-01  0.1165E+00  0.0000E+00
     10.978  0.1913E-01  0.1203E+00  0.0000E+00
     11.110  0.1122E-01  0.1293E+00  0.0000E+00
     11.243  0.1665E-01  0.1579E+00  0.0000E+00
     11.375  0.1222E-01  0.1075E+00  0.0000E+00
     11.508  0.1477E-01  0.1200E+00  0.0000E+00
     11.640  0.1978E-01  0.1277E+00  0.0000E+00
     11.772  0.1332E-01  0.9578E-01  0.0000E+00
     11.905  0.1055E-01  0.5641E-01  0.0000E+00
     12.037  0.1150E-01  0.5839E-01  0.0000E+00
     12.170  0.1102E-01  0.5777E-01  0.0000E+00
     12.302  0.1310E-01  0.4464E-01  0.0000E+00
     12.434  0.1021E-01  0.3391E-01  0.0000E+00
     12.567  0.1662E-01  0.5311E-01  0.0000E+00
     12.699  0.1691E-01  0.6443E-01  0.0000E+00
     12.832  0.1848E-01  0.1112E+00  0.0000E+00
     12.964  0.2665E-01  0.1035E+00  0.0000E+00
     13.096  0.1323E-01  0.9402E-01  0.0000E+00
     13.229  0.1821E-01  0.1347E+00  0.0000E+00
     13.361  0.1606E-01  0.9955E-01  0.0000E+00
     13.493  0.2360E-01  0.8011E-01  0.0000E+00
     13.626  0.1780E-01  0.6822E-01  0.0000E+00
     13.758  0.1672E-01  0.6601E-01  0.0000E+00
     13.891  0.2506E-01  0.6748E-01  0.0000E+00
     14.023  0.2351E-01  0.4928E-01  0.0000E+00
     14.155  0.1940E-01  0.5293E-01  0.0000E+00
     14.288  0.3091E-01  0.4769E-01  0.0000E+00
     14.420  0.1434E-01  0.3448E-01  0.0000E+00
     14.553  0.2095E-01  0.3211E-01  0.0000E+00
     14.685  0.1875E-01  0.2411E-01  0.0000E+00
     14.817  0.2960E-02  0.1260E-01  0.0000E+00
     14.950  0.1871E-02  0.4820E-02  0.0000E+00
     15.082  0.6004E-03  0.4564E-02  0.0000E+00
     15.215  0.1153E-02  0.2124E-02  0.0000E+00
     15.347  0.0000E+00  0.0000E+00  0.0000E+00
     15.479  0.0000E+00  0.0000E+00  0.0000E+00
     15.612  0.0000E+00  0.0000E+00  0.0000E+00
     15.744  0.0000E+00  0.0000E+00  0.0000E+00
     15.877  0.0000E+00  0.0000E+00  0.0000E+00
     16.009  0.0000E+00  0.0000E+00  0.0000E+00
     16.141  0.0000E+00  0.0000E+00  0.0000E+00
     16.274  0.0000E+00  0.0000E+00  0.0000E+00
     16.406  0.0000E+00  0.0000E+00  0.0000E+00
     16.539  0.0000E+00  0.0000E+00  0.0000E+00
     16.671  0.0000E+00  0.0000E+00  0.0000E+00
     16.803  0.0000E+00  0.0000E+00  0.0000E+00
     16.936  0.0000E+00  0.0000E+00  0.0000E+00
     17.068  0.0000E+00  0.0000E+00  0.0000E+00
     17.06811927    -22.65003366  301      1.32980117      1.00000000
    -22.650  0.0000E+00  0.0000E+00  0.0000E+00
    -22.518  0.0000E+00  0.0000E+00  0.0000E+00
    -22.385  0.0000E+00  0.0000E+00  0.0000E+00
    -22.253  0.0000E+00  0.0000E+00  0.0000E+00
    -22.120  0.0000E+00  0.0000E+00  0.0000E+00
    -21.988  0.0000E+00  0.0000E+00  0.0000E+00
    -21.856  0.0000E+00  0.0000E+00  0.0000E+00
    -21.723  0.0000E+00  0.0000E+00  0.0000E+00
    -21.591  0.0000E+00  0.0000E+00  0.0000E+00
    -21.458  0.0000E+00  0.0000E+00  0.0000E+00
    -21.326  0.0000E+00  0.0000E+00  0.0000E+00
    -21.194  0.0000E+00  0.0000E+00  0.0000E+00
    -21.061  0.0000E+00  0.0000E+00  0.0000E+00
    -20.929  0.0000E+00  0.0000E+00  0.0000E+00
    -20.797  0.8476E+01  0.2688E-02  0.0000E+00
    -20.664  0.0000E+00  0.0000E+00  0.0000E+00
    -20.532  0.0000E+00  0.0000E+00  0.0000E+00
    -20.399  0.0000E+00  0.0000E+00  0.0000E+00
    -20.267  0.0000E+00  0.0000E+00  0.0000E+00
    -20.135  0.0000E+00  0.0000E+00  0.0000E+00
    -20.002  0.0000E+00  0.0000E+00  0.0000E+00
    -19.870  0.0000E+00  0.0000E+00  0.0000E+00
    -19.737  0.0000E+00  0.0000E+00  0.0000E+00
    -19.605  0.0000E+00  0.0000E+00  0.0000E+00
    -19.473  0.0000E+00  0.0000E+00  0.0000E+00
    -19.340  0.0000E+00  0.0000E+00  0.0000E+00
    -19.208  0.0000E+00  0.0000E+00  0.0000E+00
    -19.075  0.0000E+00  0.0000E+00  0.0000E+00
    -18.943  0.0000E+00  0.0000E+00  0.0000E+00
    -18.811  0.0000E+00  0.0000E+00  0.0000E+00
    -18.678  0.0000E+00  0.0000E+00  0.0000E+00
    -18.546  0.0000E+00  0.0000E+00  0.0000E+00
    -18.413  0.0000E+00  0.0000E+00  0.0000E+00
    -18.281  0.0000E+00  0.0000E+00  0.0000E+00
    -18.149  0.0000E+00  0.0000E+00  0.0000E+00
    -18.016  0.0000E+00  0.0000E+00  0.0000E+00
    -17.884  0.0000E+00  0.0000E+00  0.0000E+00
    -17.751  0.0000E+00  0.0000E+00  0.0000E+00
    -17.619  0.0000E+00  0.0000E+00  0.0000E+00
    -17.487  0.0000E+00  0.0000E+00  0.0000E+00
    -17.354  0.0000E+00  0.0000E+00  0.0000E+00
    -17.222  0.2014E-20  0.3168E-19  0.0000E+00
    -17.089  0.2773E-04  0.1964E-04  0.0000E+00
    -16.957  0.0000E+00  0.0000E+00  0.0000E+00
    -16.825  0.0000E+00  0.0000E+00  0.0000E+00
    -16.692  0.0000E+00  0.0000E+00  0.0000E+00
    -16.560  0.0000E+00  0.0000E+00  0.0000E+00
    -16.428  0.0000E+00  0.0000E+00  0.0000E+00
    -16.295  0.0000E+00  0.0000E+00  0.0000E+00
    -16.163  0.0000E+00  0.0000E+00  0.0000E+00
    -16.030  0.0000E+00  0.0000E+00  0.0000E+00
    -15.898  0.0000E+00  0.0000E+00  0.0000E+00
    -15.766  0.0000E+00  0.0000E+00  0.0000E+00
    -15.633  0.0000E+00  0.0000E+00  0.0000E+00
    -15.501  0.0000E+00  0.0000E+00  0.0000E+00
    -15.368  0.0000E+00  0.0000E+00  0.0000E+00
    -15.236  0.0000E+00  0.0000E+00  0.0000E+00
    -15.104  0.0000E+00  0.0000E+00  0.0000E+00
    -14.971  0.0000E+00  0.0000E+00  0.0000E+00
    -14.839  0.0000E+00  0.0000E+00  0.0000E+00
    -14.706  0.0000E+00  0.0000E+00  0.0000E+00
    -14.574  0.0000E+00  0.0000E+00  0.0000E+00
    -14.442  0.0000E+00  0.0000E+00  0.0000E+00
    -14.309  0.0000E+00  0.0000E+00  0.0000E+00
    -14.177  0.0000E+00  0.0000E+00  0.0000E+00
    -14.044  0.0000E+00  0.0000E+00  0.0000E+00
    -13.912  0.0000E+00  0.0000E+00  0.0000E+00
    -13.780  0.0000E+00  0.0000E+00  0.0000E+00
    -13.647  0.0000E+00  0.0000E+00  0.0000E+00
    -13.515  0.0000E+00  0.0000E+00  0.0000E+00
    -13.382  0.2313E-07  0.9109E-07  0.0000E+00
    -13.250  0.4377E+00  0.1631E+01  0.0000E+00
    -13.118  0.0000E+00  0.0000E+00  0.0000E+00
    -12.985  0.0000E+00  0.0000E+00  0.0000E+00
    -12.853  0.0000E+00  0.0000E+00  0.0000E+00
    -12.720  0.0000E+00  0.0000E+00  0.0000E+00
    -12.588  0.0000E+00  0.0000E+00  0.0000E+00
    -12.456  0.0000E+00  0.0000E+00  0.0000E+00
    -12.323  0.7614E-03  0.1549E-03  0.0000E+00
    -12.191  0.2940E-02  0.2947E-02  0.0000E+00
    -12.059  0.6617E-02  0.1516E-01  0.0000E+00
    -11.926  0.1104E-02  0.1813E-01  0.0000E+00
    -11.794  0.5625E-02  0.1918E-01  0.0000E+00
    -11.661  0.1109E-02  0.5505E-02  0.0000E+00
    -11.529  0.1102E-05  0.8734E-03  0.0000E+00
    -11.397  0.8361E-03  0.3053E-02  0.0000E+00
    -11.264  0.7107E-03  0.6043E-03  0.0000E+00
    -11.132  0.0000E+00  0.0000E+00  0.0000E+00
    -10.999  0.0000E+00  0.0000E+00  0.0000E+00
    -10.867  0.0000E+00  0.0000E+00  0.0000E+00