    2    2  100    1
  0.3405476E+02  0.4583961E-09  0.4583961E-09  0.4583961E-09  0.5000000E-15
  1.000000000000000E-004
  CAR 
 Name                                    
     18     16     16
 
  0.0000000E+00  0.0000000E+00  0.0000000E+00  0.4629630E-02
    1       -8.983977
    2       -5.979236
    3       -5.979236
    4       -5.979236
    5       -5.694563
    6       -5.694563
    7        2.417391
    8        2.417391
    9        2.417391
   10        3.051195
   11        6.895897
   12        6.895897
   13        6.895897
   14        9.669979
   15       11.799006
   16       11.799006
 
  0.1666667E+00  0.0000000E+00  0.0000000E+00  0.3703704E-01
    1       -8.876091
    2       -5.958835
    3       -5.958835
    4       -5.895240
    5       -5.696051
    6       -5.696051
    7        0.575685
    8        2.171232
    9        2.171232
   10        4.181945
   11        7.021072
   12        7.248637
   13        7.248637
   14       10.673452
   15       10.833060
   16       10.833060
 
  0.3333333E+00  0.0000000E+00  0.0000000E+00  0.3703704E-01
    1       -8.659375
    2       -5.923838
    3       -5.923838
    4       -5.691924
    5       -5.691924
    6       -5.601700
    7       -1.347540
    8        1.764161
    9        1.764161
   10        4.216098
   11        7.537961
   12        7.537961
   13        8.581143
   14       10.283729
   15       11.251411
   16       11.251411
 
  0.5000000E+00  0.0000000E+00  0.0000000E+00  0.1851852E-01
    1       -8.552864
    2       -5.910332
    3       -5.910332
    4       -5.685130
    5       -5.685130
    6       -5.326204
    7       -2.243686
    8        1.588538
    9        1.588538
   10        4.099701
   11        7.498239
   12        7.498239
   13        9.291846
   14       10.967073
   15       12.696308
   16       12.696308
 
  0.1666667E+00  0.1666667E+00  0.0000000E+00  0.2777778E-01
    1       -8.840480
    2       -5.938229
    3       -5.938229
    4       -5.897972
    5       -5.704164
    6       -5.686319
    7        0.579894
    8        1.764181
    9        1.764181
   10        4.872923
   11        5.948407
   12        7.887380
   13        7.887380
   14        9.468754
   15       11.486332
   16       12.036559
 
  0.3333333E+00  0.1666667E+00  0.0000000E+00  0.1111111E+00
    1       -8.661106
    2       -5.911440
    3       -5.898451
    4       -5.756035
    5       -5.680132
    6       -5.625348
    7       -0.861346
    8        1.206922
    9        1.330419
   10        5.208938
   11        6.329592
   12        8.007226
   13        8.466316
   14       10.244265
   15       12.062054
   16       12.159003
 
  0.5000000E+00  0.1666667E+00  0.0000000E+00  0.1111111E+00
    1       -8.520795
    2       -5.895600
    3       -5.881522
    4       -5.713772
    5       -5.681989
    6       -5.301862
    7       -2.015520
    8        0.651022
    9        1.245074
   10        5.102764
   11        6.986762
   12        8.273795
   13        8.909338
   14       11.119130
   15       12.347203
   16       12.791220
 
 -0.3333333E+00  0.1666667E+00  0.0000000E+00  0.1111111E+00
    1       -8.555331
    2       -5.896720
    3       -5.896705
    4       -5.699102
    5       -5.698521
    6       -5.394886
    7       -1.732457
    8        0.506462
    9        1.562365
   10        5.167427
   11        7.224576
   12        7.959705
   13        8.691970
   14       10.838167
   15       11.473950
   16       12.699815
 
 -0.1666667E+00  0.1666667E+00  0.0000000E+00  0.5555556E-01
    1       -8.732183
    2       -5.935417
    3       -5.920365
    4       -5.761612
    5       -5.705757
    6       -5.671840
    7       -0.436441
    8        1.067645
    9        2.043471
   10        5.023658
   11        6.992166
   12        7.482214
   13        7.796549
   14       10.066431
   15       11.312349
   16       12.079403
 
  0.3333333E+00  0.3333333E+00  0.0000000E+00  0.2777778E-01
    1       -8.556675
    2       -5.848665
    3       -5.848665
    4       -5.800996
    5       -5.669812
    6       -5.505342
    7       -1.218029
    8        0.816685
    9        0.816685
   10        4.976955
   11        5.433804
   12        9.694740
   13        9.886487
   14        9.886487
   15       12.692354
   16       14.341325
 
  0.5000000E+00  0.3333333E+00  0.0000000E+00  0.1111111E+00
    1       -8.455077
    2       -5.849424
    3       -5.825283
    4       -5.769574
    5       -5.671122
    6       -5.232406
    7       -1.882476
    8        0.111539
    9        0.676453
   10        5.078725
   11        6.011319
   12        9.326911
   13       10.076396
   14       11.479524
   15       13.096906
   16       13.906717
 
 -0.3333333E+00  0.3333333E+00  0.0000000E+00  0.5555556E-01
    1       -8.455522
    2       -5.870538
    3       -5.846429
    4       -5.726288
    5       -5.690244
    6       -5.162694
    7       -1.927946
    8       -0.371287
    9        1.004516
   10        5.328492
   11        7.479842
   12        9.204022
   13        9.338704
   14        9.799897
   15       11.375689
   16       14.544517
 
  0.5000000E+00  0.5000000E+00  0.0000000E+00  0.1388889E-01
    1       -8.421490
    2       -5.815611
    3       -5.799519
    4       -5.799519
    5       -5.661548
    6       -5.180592
    7       -2.099571
    8        0.429743
    9        0.429743
   10        4.795820
   11        4.959493
   12       11.207187
   13       11.538922
   14       11.538922
   15       13.239968
   16       13.955231
 
  0.5000000E+00  0.3333333E+00  0.1666667E+00  0.1111111E+00
    1       -8.522317
    2       -5.875142
    3       -5.867438
    4       -5.742503
    5       -5.681444
    6       -5.370226
    7       -1.548925
    8        0.200303
    9        1.004613
   10        5.952393
   11        6.408042
   12        7.574770
   13        9.782516
   14       10.553976
   15       12.655712
   16       13.853139
 
 -0.3333333E+00  0.3333333E+00  0.1666667E+00  0.1111111E+00
    1       -8.455511
    2       -5.867517
    3       -5.851017
    4       -5.722696
    5       -5.692393
    6       -5.161610
    7       -1.968844
    8       -0.130003
    9        0.702888
   10        6.075434
   11        6.892164
   12        8.093324
   13        9.591305
   14       10.339064
   15       12.852636
   16       13.631112
 
 -0.3333333E+00  0.5000000E+00  0.1666667E+00  0.5555556E-01
    1       -8.422924
    2       -5.838107
    3       -5.834457
    4       -5.748353
    5       -5.681559
    6       -5.109487
    7       -2.011012
    8        0.059065
    9        0.141255
   10        6.034795
   11        6.071188
   12        9.024669
   13        9.292427
   14       12.006152
   15       13.495406
   16       13.740086
