 running on 1344 total cores
 distrk:  each k-point on  192 cores,    7 groups
 distr:  one band on   12 cores,   16 groups
 using from now: INCAR     
 vasp.5.4.1 24Jun15 (build Nov 25 2015 16:01:35) complex                        
  
 POSCAR found type information on POSCAR  C  N  H  Pb I 
 POSCAR found :  5 types and      96 ions
 scaLAPACK will be used

 ----------------------------------------------------------------------------- 
|                                                                             |
|           W    W    AA    RRRRR   N    N  II  N    N   GGGG   !!!           |
|           W    W   A  A   R    R  NN   N  II  NN   N  G    G  !!!           |
|           W    W  A    A  R    R  N N  N  II  N N  N  G       !!!           |
|           W WW W  AAAAAA  RRRRR   N  N N  II  N  N N  G  GGG   !            |
|           WW  WW  A    A  R   R   N   NN  II  N   NN  G    G                |
|           W    W  A    A  R    R  N    N  II  N    N   GGGG   !!!           |
|                                                                             |
|      For optimal performance we recommend to set                            |
|        NCORE= 4 - approx SQRT( number of cores)                             |
|      NCORE specifies how many cores store one orbital (NPAR=cpu/NCORE).     |
|      This setting can  greatly improve the performance of VASP for DFT.     |
|      The default, NPAR=number of cores might be grossly inefficient         |
|      on modern multi-core architectures or massively parallel machines.     |
|      Do your own testing !!!!                                               |
|      Unfortunately you need to use the default for GW and RPA calculations. |
|      (for HF NCORE is supported but not extensively tested yet)             |
|                                                                             |
 ----------------------------------------------------------------------------- 


 ----------------------------------------------------------------------------- 
|                                                                             |
|           W    W    AA    RRRRR   N    N  II  N    N   GGGG   !!!           |
|           W    W   A  A   R    R  NN   N  II  NN   N  G    G  !!!           |
|           W    W  A    A  R    R  N N  N  II  N N  N  G       !!!           |
|           W WW W  AAAAAA  RRRRR   N  N N  II  N  N N  G  GGG   !            |
|           WW  WW  A    A  R   R   N   NN  II  N   NN  G    G                |
|           W    W  A    A  R    R  N    N  II  N    N   GGGG   !!!           |
|                                                                             |
|      You have enabled k-point parallelism (KPAR>1).                         |
|      This developmental code was originally  written by Paul Kent at ORNL,  |
|      and carefully double checked in Vienna.                                |
|      GW as well as linear response parallelism added by Martijn Marsman     |
|      and Georg Kresse.                                                      |
|      Carefully verify results versus KPAR=1.                                |
|      Report problems to Paul Kent and Vienna.                               |
|                                                                             |
 ----------------------------------------------------------------------------- 


 ----------------------------------------------------------------------------- 
|                                                                             |
|  ADVICE TO THIS USER RUNNING 'VASP/VAMP'   (HEAR YOUR MASTER'S VOICE ...):  |
|                                                                             |
|      You have a (more or less) 'large supercell' and for larger cells       |
|      it might be more efficient to use real space projection opertators     |
|      So try LREAL= Auto  in the INCAR   file.                               |
|      Mind: At the moment your POTCAR file does not contain real space       |
|       projectors, and has to be modified,  BUT if you                       |
|      want to do an extremely  accurate calculation you might also keep the  |
|      reciprocal projection scheme          (i.e. LREAL=.FALSE.)             |
|                                                                             |
 ----------------------------------------------------------------------------- 

 LDA part: xc-table for Pade appr. of Perdew
 POSCAR, INCAR and KPOINTS ok, starting setup
 WARNING: small aliasing (wrap around) errors must be expected
 FFT: planning ...
 WAVECAR not read
  WARNING: DENMP: can't reach specified precision
  Number of Electrons is NELECT =   399.999999999859     
 entering main loop
       N       E                     dE             d eps       ncg     rms          ort
DAV:   1     0.346557224351E+05    0.34656E+05   -0.11451E+06  3584   0.486E+03
DAV:   2     0.864206996332E+04   -0.26014E+05   -0.25279E+05  3584   0.168E+03
DAV:   3     0.179286976364E+04   -0.68492E+04   -0.67450E+04  3584   0.501E+02
DAV:   4     0.437453811570E+03   -0.13554E+04   -0.13009E+04  3584   0.208E+02
DAV:   5     0.274251677974E+03   -0.16320E+03   -0.16055E+03  3584   0.774E+01
 gam= 0.000 g(H,U,f)=  0.106E+03 0.527E+01 0.000E+00 ort(H,U,f) = 0.000E+00 0.000E+00 0.000E+00
SDA:   6    -0.448829195998E+03   -0.72308E+03   -0.16055E+03  3584   0.111E+03 0.000E+00
 gam= 0.000 trial= 0.400  step= 0.338 mean= 0.400
 gam= 0.353 g(H,U,f)=  0.375E+02 0.170E+01 0.170-149 ort(H,U,f) =-0.201E+01 0.265E+01 0.256-149
CGA:   7    -0.467515255051E+03   -0.18686E+02   -0.18752E+02  3584   0.392E+02 0.639E+00
 gam= 0.353 trial= 0.397  step= 0.391 mean= 0.397
 gam= 0.211 g(H,U,f)=  0.786E+01 0.404E+00 0.259-188 ort(H,U,f) =-0.980E+00 0.995E+00 0.548-188
CGA:   8    -0.475218760946E+03   -0.77035E+01   -0.77039E+01  3584   0.826E+01 0.154E-01
 gam= 0.211 trial= 0.397  step= 0.672 mean= 0.397
 gam= 0.335 g(H,U,f)=  0.262E+01 0.149E+00 0.000E+00 ort(H,U,f) =-0.345E+00 0.337E+00 0.000E+00
CGA:   9    -0.477995618402E+03   -0.27769E+01   -0.27765E+01  3584   0.277E+01-0.854E-02
 gam= 0.335 trial= 0.410  step= 0.634 mean= 0.410
 gam= 0.373 g(H,U,f)=  0.988E+00 0.447E-01 0.000E+00 ort(H,U,f) =-0.139E+00 0.130E+00 0.000E+00
CGA:  10    -0.478872837922E+03   -0.87722E+00   -0.87810E+00  3584   0.103E+01-0.829E-02
 gam= 0.373 trial= 0.422  step= 0.436 mean= 0.422
 gam= 0.396 g(H,U,f)=  0.390E+00 0.188E-01 0.000E+00 ort(H,U,f) =-0.547E-01 0.531E-01 0.000E+00
CGA:  11    -0.479097243717E+03   -0.22441E+00   -0.22442E+00  3584   0.409E+00-0.151E-02
 gam= 0.396 trial= 0.422  step= 0.556 mean= 0.422
 gam= 0.251 g(H,U,f)=  0.983E-01 0.414E-02 0.632-179 ort(H,U,f) =-0.181E-01 0.164E-01 0.357-178
CGA:  12    -0.479210534492E+03   -0.11329E+00   -0.11341E+00  3584   0.102E+00-0.171E-02
 gam= 0.251 trial= 0.429  step= 0.690 mean= 0.429
 gam= 0.305 g(H,U,f)=  0.302E-01 0.982E-03 0.193E-34 ort(H,U,f) =-0.412E-02 0.367E-02 0.131E-33
CGA:  13    -0.479245662226E+03   -0.35128E-01   -0.35191E-01  3584   0.312E-01-0.455E-03
 gam= 0.305 trial= 0.442  step= 0.652 mean= 0.442
 gam= 0.401 g(H,U,f)=  0.122E-01 0.284E-03 0.000E+00 ort(H,U,f) =-0.999E-03 0.965E-03 0.000E+00
CGA:  14    -0.479255775825E+03   -0.10114E-01   -0.10118E-01  3584   0.125E-01-0.338E-04
 gam= 0.401 trial= 0.452  step= 0.460 mean= 0.452
 gam= 0.486 g(H,U,f)=  0.600E-02 0.862E-04 0.000E+00 ort(H,U,f) =-0.485E-03 0.239E-03 0.000E+00
CGA:  15    -0.479258650823E+03   -0.28750E-02   -0.28759E-02  3584   0.609E-02-0.246E-03
 gam= 0.486 trial= 0.453  step= 0.504 mean= 0.453
 gam= 0.303 g(H,U,f)=  0.181E-02 0.304E-04 0.000E+00 ort(H,U,f) =-0.238E-04 0.656E-04 0.000E+00
CGA:  16    -0.479260156057E+03   -0.15052E-02   -0.15042E-02  3584   0.184E-02 0.418E-04
 gam= 0.303 trial= 0.455  step= 0.743 mean= 0.455
 gam= 0.383 g(H,U,f)=  0.692E-03 0.128E-04 0.127E-14 ort(H,U,f) =-0.591E-04 0.536E-05-0.258E-15
CGA:  17    -0.479260837411E+03   -0.68135E-03   -0.68915E-03  3584   0.704E-03-0.538E-04
 gam= 0.383 trial= 0.470  step= 0.664 mean= 0.470
 gam= 0.376 g(H,U,f)=  0.258E-03 0.667E-05 0.000E+00 ort(H,U,f) = 0.654E-05 0.466E-05 0.000E+00
CGA:  18    -0.479261065596E+03   -0.22819E-03   -0.22711E-03  3584   0.265E-03 0.112E-04
 gam= 0.376 trial= 0.480  step= 0.649 mean= 0.480
 gam= 0.439 g(H,U,f)=  0.112E-03 0.386E-05 0.000E+00 ort(H,U,f) =-0.120E-04 0.470E-05 0.000E+00
CGA:  19    -0.479261152360E+03   -0.86764E-04   -0.87388E-04  3584   0.116E-03-0.731E-05
 gam= 0.439 trial= 0.488  step= 0.445 mean= 0.488
 gam= 0.396 g(H,U,f)=  0.443E-04 0.174E-05 0.000E+00 ort(H,U,f) = 0.110E-04 0.339E-05 0.000E+00
CGA:  20    -0.479261177172E+03   -0.24812E-04   -0.25124E-04  3584   0.461E-04 0.144E-04
 gam= 0.396 trial= 0.486  step= 0.684 mean= 0.486
 gam= 0.594 g(H,U,f)=  0.268E-04 0.616E-06 0.000E+00 ort(H,U,f) =-0.937E-05 0.157E-05 0.000E+00
CGA:  21    -0.479261194104E+03   -0.16932E-04   -0.17706E-04  3584   0.274E-04-0.780E-05
 gam= 0.594 trial= 0.496  step= 0.501 mean= 0.496
 gam= 0.329 g(H,U,f)=  0.884E-05 0.158E-06 0.000E+00 ort(H,U,f) = 0.207E-05 0.557E-06 0.000E+00
CGA:  22    -0.479261199811E+03   -0.57074E-05   -0.57001E-05  3584   0.900E-05 0.262E-05
 gam= 0.329 trial= 0.496  step= 0.601 mean= 0.496
 gam= 0.408 g(H,U,f)=  0.363E-05 0.451E-07 0.289-190 ort(H,U,f) =-0.146E-06 0.881E-07-0.138-189
CGA:  23    -0.479261202772E+03   -0.29609E-05   -0.29639E-05  3584   0.367E-05-0.574E-07
 gam= 0.408 trial= 0.501  step= 0.870 mean= 0.501
 gam= 0.000 g(H,U,f)=  0.379E-05 0.217E-07 0.893E-45 ort(H,U,f) =-0.202E-05-0.121E-07-0.669E-45
CGA:  24    -0.479261203985E+03   -0.12123E-05   -0.15875E-05  3584   0.381E-05-0.203E-05
 gam= 0.000 trial= 0.520  step= 0.278 mean= 0.520
 gam= 0.177 g(H,U,f)=  0.654E-06 0.198E-07 0.729E-33 ort(H,U,f) = 0.103E-05 0.190E-07 0.767E-33
CGA:  25    -0.479261204387E+03   -0.40236E-06   -0.52915E-06  3584   0.673E-06 0.105E-05
 gam= 0.177 trial= 0.508  step= 0.889 mean= 0.508
 gam= 0.000 g(H,U,f)=  0.102E-05 0.684E-08 0.000E+00 ort(H,U,f) =-0.608E-06 0.131E-07 0.000E+00
CGA:  26    -0.479261204655E+03   -0.26841E-06   -0.38202E-06  3584   0.103E-05-0.595E-06
 gam= 0.000 trial= 0.527  step= 0.548 mean= 0.527
 gam= 0.239 g(H,U,f)=  0.242E-06 0.346E-08 0.000E+00 ort(H,U,f) =-0.263E-06 0.467E-08 0.000E+00
CGA:  27    -0.479261204934E+03   -0.27842E-06   -0.28123E-06  3584   0.246E-06-0.259E-06
 gam= 0.239 trial= 0.528  step= 0.313 mean= 0.528
 gam= 0.339 g(H,U,f)=  0.809E-07 0.256E-08 0.000E+00 ort(H,U,f) = 0.873E-07 0.393E-08 0.000E+00
CGA:  28    -0.479261204953E+03   -0.19016E-07   -0.28800E-07  3584   0.834E-07 0.913E-07
 gam= 0.339 trial= 0.517  step= 0.381 mean= 0.517
 gam= 0.494 g(H,U,f)=  0.396E-07 0.161E-08 0.000E+00 ort(H,U,f) = 0.127E-07 0.308E-08 0.000E+00
CGA:  29    -0.479261204974E+03   -0.20809E-07   -0.21816E-07  3584   0.412E-07 0.157E-07
 gam= 0.494 trial= 0.510  step=-0.201 mean= 0.510
 BOPT < 0, no correction made
 gam= 0.000 g(H,U,f)=  0.374E-07 0.562E-09 0.000E+00 ort(H,U,f) = 0.233E-07 0.184E-08 0.000E+00
CGA:  30    -0.479261205030E+03   -0.56654E-07    0.49140E-08  3584   0.380E-07 0.251E-07
 gam= 0.000 trial= 0.510  step= 0.777 mean= 0.510
 gam= 1.017 g(H,U,f)=  0.384E-07 0.270E-09 0.000E+00 ort(H,U,f) =-0.161E-07 0.384E-09 0.000E+00
CGA:  31    -0.479261205043E+03   -0.12511E-07   -0.14756E-07  3584   0.386E-07-0.157E-07
 gam= 1.017 trial= 0.524  step=-0.230 mean= 0.524
 BOPT < 0, no correction made
 gam= 0.755 g(H,U,f)=  0.291E-07 0.616E-10 0.000E+00 ort(H,U,f) = 0.143E-07 0.309E-09 0.000E+00
CGA:  32    -0.479261205068E+03   -0.25269E-07    0.26102E-08  3584   0.292E-07 0.146E-07
 gam= 0.755 trial= 0.524  step=****** mean= 0.524
 BOPT < 0, no correction made
 gam= 0.421 g(H,U,f)=  0.123E-07 0.438E-11 0.000E+00 ort(H,U,f) =-0.460E-09-0.327E-11 0.000E+00
CGA:  33    -0.479261205089E+03   -0.21253E-07    0.39252E-06  3584   0.123E-07-0.463E-09
 gam= 0.421 trial= 0.524  step= 0.444 mean= 0.524
 gam= 0.394 g(H,U,f)=  0.482E-08 0.855E-11 0.000E+00 ort(H,U,f) = 0.536E-08-0.381E-10 0.000E+00
CGA:  34    -0.479261205092E+03   -0.23647E-08   -0.26808E-08  3584   0.483E-08 0.533E-08
 gam= 0.394 trial= 0.520  step=-0.176 mean= 0.520
 BOPT < 0, no correction made
   1 F= -.47926121E+03 E0= -.47926121E+03  d E =0.000000E+00
Application 22296177 resources: utime ~24020829s, stime ~32147s, Rss ~383876, inblocks ~18604960, outblocks ~10962223
