       N       E                     dE             d eps       ncg     rms          ort
DAV:   1     0.346557224351E+05    0.34656E+05   -0.11451E+06  3584   0.486E+03
DAV:   2     0.864206996332E+04   -0.26014E+05   -0.25279E+05  3584   0.168E+03
DAV:   3     0.179286976364E+04   -0.68492E+04   -0.67450E+04  3584   0.501E+02
DAV:   4     0.437453811570E+03   -0.13554E+04   -0.13009E+04  3584   0.208E+02
DAV:   5     0.274251677974E+03   -0.16320E+03   -0.16055E+03  3584   0.774E+01
SDA:   6    -0.448829195998E+03   -0.72308E+03   -0.16055E+03  3584   0.111E+03 0.000E+00
CGA:   7    -0.467515255051E+03   -0.18686E+02   -0.18752E+02  3584   0.392E+02 0.639E+00
CGA:   8    -0.475218760946E+03   -0.77035E+01   -0.77039E+01  3584   0.826E+01 0.154E-01
CGA:   9    -0.477995618402E+03   -0.27769E+01   -0.27765E+01  3584   0.277E+01-0.854E-02
CGA:  10    -0.478872837922E+03   -0.87722E+00   -0.87810E+00  3584   0.103E+01-0.829E-02
CGA:  11    -0.479097243717E+03   -0.22441E+00   -0.22442E+00  3584   0.409E+00-0.151E-02
CGA:  12    -0.479210534492E+03   -0.11329E+00   -0.11341E+00  3584   0.102E+00-0.171E-02
CGA:  13    -0.479245662226E+03   -0.35128E-01   -0.35191E-01  3584   0.312E-01-0.455E-03
CGA:  14    -0.479255775825E+03   -0.10114E-01   -0.10118E-01  3584   0.125E-01-0.338E-04
CGA:  15    -0.479258650823E+03   -0.28750E-02   -0.28759E-02  3584   0.609E-02-0.246E-03
CGA:  16    -0.479260156057E+03   -0.15052E-02   -0.15042E-02  3584   0.184E-02 0.418E-04
CGA:  17    -0.479260837411E+03   -0.68135E-03   -0.68915E-03  3584   0.704E-03-0.538E-04
CGA:  18    -0.479261065596E+03   -0.22819E-03   -0.22711E-03  3584   0.265E-03 0.112E-04
CGA:  19    -0.479261152360E+03   -0.86764E-04   -0.87388E-04  3584   0.116E-03-0.731E-05
CGA:  20    -0.479261177172E+03   -0.24812E-04   -0.25124E-04  3584   0.461E-04 0.144E-04
CGA:  21    -0.479261194104E+03   -0.16932E-04   -0.17706E-04  3584   0.274E-04-0.780E-05
CGA:  22    -0.479261199811E+03   -0.57074E-05   -0.57001E-05  3584   0.900E-05 0.262E-05
CGA:  23    -0.479261202772E+03   -0.29609E-05   -0.29639E-05  3584   0.367E-05-0.574E-07
CGA:  24    -0.479261203985E+03   -0.12123E-05   -0.15875E-05  3584   0.381E-05-0.203E-05
CGA:  25    -0.479261204387E+03   -0.40236E-06   -0.52915E-06  3584   0.673E-06 0.105E-05
CGA:  26    -0.479261204655E+03   -0.26841E-06   -0.38202E-06  3584   0.103E-05-0.595E-06
CGA:  27    -0.479261204934E+03   -0.27842E-06   -0.28123E-06  3584   0.246E-06-0.259E-06
CGA:  28    -0.479261204953E+03   -0.19016E-07   -0.28800E-07  3584   0.834E-07 0.913E-07
CGA:  29    -0.479261204974E+03   -0.20809E-07   -0.21816E-07  3584   0.412E-07 0.157E-07
CGA:  30    -0.479261205030E+03   -0.56654E-07    0.49140E-08  3584   0.380E-07 0.251E-07
CGA:  31    -0.479261205043E+03   -0.12511E-07   -0.14756E-07  3584   0.386E-07-0.157E-07
CGA:  32    -0.479261205068E+03   -0.25269E-07    0.26102E-08  3584   0.292E-07 0.146E-07
CGA:  33    -0.479261205089E+03   -0.21253E-07    0.39252E-06  3584   0.123E-07-0.463E-09
CGA:  34    -0.479261205092E+03   -0.23647E-08   -0.26808E-08  3584   0.483E-08 0.533E-08
   1 F= -.47926121E+03 E0= -.47926121E+03  d E =0.000000E+00
