 vasp.5.4.1 24Jun15 (build Nov 25 2015 16:01:35) complex                        
  
 executed on         CrayXC-Intel date 2016.06.26  16:04:55
 running on 1344 total cores
 distrk:  each k-point on  192 cores,    7 groups
 distr:  one band on NCORES_PER_BAND=  12 cores,   16 groups


--------------------------------------------------------------------------------------------------------


 INCAR:
 POTCAR:    PAW_PBE C 08Apr2002                   
 POTCAR:    PAW_PBE N 08Apr2002                   
 POTCAR:    PAW_PBE H 15Jun2001                   
 POTCAR:    PAW_PBE Pb_d 06Sep2000                
 POTCAR:    PAW_PBE I 08Apr2002                   

 ----------------------------------------------------------------------------- 
|                                                                             |
|           W    W    AA    RRRRR   N    N  II  N    N   GGGG   !!!           |
|           W    W   A  A   R    R  NN   N  II  NN   N  G    G  !!!           |
|           W    W  A    A  R    R  N N  N  II  N N  N  G       !!!           |
|           W WW W  AAAAAA  RRRRR   N  N N  II  N  N N  G  GGG   !            |
|           WW  WW  A    A  R   R   N   NN  II  N   NN  G    G                |
|           W    W  A    A  R    R  N    N  II  N    N   GGGG   !!!           |
|                                                                             |
|      For optimal performance we recommend to set                            |
|        NCORE= 4 - approx SQRT( number of cores)                             |
|      NCORE specifies how many cores store one orbital (NPAR=cpu/NCORE).     |
|      This setting can  greatly improve the performance of VASP for DFT.     |
|      The default, NPAR=number of cores might be grossly inefficient         |
|      on modern multi-core architectures or massively parallel machines.     |
|      Do your own testing !!!!                                               |
|      Unfortunately you need to use the default for GW and RPA calculations. |
|      (for HF NCORE is supported but not extensively tested yet)             |
|                                                                             |
 ----------------------------------------------------------------------------- 


 ----------------------------------------------------------------------------- 
|                                                                             |
|           W    W    AA    RRRRR   N    N  II  N    N   GGGG   !!!           |
|           W    W   A  A   R    R  NN   N  II  NN   N  G    G  !!!           |
|           W    W  A    A  R    R  N N  N  II  N N  N  G       !!!           |
|           W WW W  AAAAAA  RRRRR   N  N N  II  N  N N  G  GGG   !            |
|           WW  WW  A    A  R   R   N   NN  II  N   NN  G    G                |
|           W    W  A    A  R    R  N    N  II  N    N   GGGG   !!!           |
|                                                                             |
|      You have enabled k-point parallelism (KPAR>1).                         |
|      This developmental code was originally  written by Paul Kent at ORNL,  |
|      and carefully double checked in Vienna.                                |
|      GW as well as linear response parallelism added by Martijn Marsman     |
|      and Georg Kresse.                                                      |
|      Carefully verify results versus KPAR=1.                                |
|      Report problems to Paul Kent and Vienna.                               |
|                                                                             |
 ----------------------------------------------------------------------------- 

 POTCAR:    PAW_PBE C 08Apr2002                   
   VRHFIN =C: s2p2                                                              
   LEXCH  = PE                                                                  
   EATOM  =   147.1560 eV,   10.8157 Ry                                         
                                                                                
   TITEL  = PAW_PBE C 08Apr2002                                                 
   LULTRA =        F    use ultrasoft PP ?                                      
   IUNSCR =        1    unscreen: 0-lin 1-nonlin 2-no                           
   RPACOR =    1.200    partial core radius                                     
   POMASS =   12.011; ZVAL   =    4.000    mass and valenz                      
   RCORE  =    1.500    outmost cutoff radius                                   
   RWIGS  =    1.630; RWIGS  =    0.863    wigner-seitz radius (au A)           
   ENMAX  =  400.000; ENMIN  =  300.000 eV                                      
   ICORE  =        2    local potential                                         
   LCOR   =        T    correct aug charges                                     
   LPAW   =        T    paw PP                                                  
   EAUG   =  644.873                                                            
   DEXC   =    0.000                                                            
   RMAX   =    1.529    core radius for proj-oper                               
   RAUG   =    1.300    factor for augmentation sphere                          
   RDEP   =    1.501    radius for radial grids                                 
   RDEPT  =    1.300    core radius for aug-charge                              
                                                                                
   Atomic configuration                                                         
    4 entries                                                                   
     n  l   j            E        occ.                                          
     1  0  0.50      -273.3789   2.0000                                         
     2  0  0.50       -13.7508   2.0000                                         
     2  1  0.50        -5.2854   2.0000                                         
     3  2  1.50        -5.4423   0.0000                                         
   Description                                                                  
     l       E           TYP  RCUT    TYP  RCUT                                 
     0    -13.7508458     23  1.200                                             
     0     -8.2022199     23  1.200                                             
     1     -5.2854383     23  1.500                                             
     1     34.0145650     23  1.500                                             
     2     -5.4423304      7  1.500                                             
  local pseudopotential read in
  partial core-charges read in
  partial kinetic energy density read in
  atomic valenz-charges read in
  non local Contribution for L=           0  read in
    real space projection operators read in
  non local Contribution for L=           0  read in
    real space projection operators read in
  non local Contribution for L=           1  read in
    real space projection operators read in
  non local Contribution for L=           1  read in
    real space projection operators read in
    PAW grid and wavefunctions read in
 
   number of l-projection  operators is LMAX  =           4
   number of lm-projection operators is LMMAX =           8
 
 POTCAR:    PAW_PBE N 08Apr2002                   
   VRHFIN =N: s2p3                                                              
   LEXCH  = PE                                                                  
   EATOM  =   264.5486 eV,   19.4438 Ry                                         
                                                                                
   TITEL  = PAW_PBE N 08Apr2002                                                 
   LULTRA =        F    use ultrasoft PP ?                                      
   IUNSCR =        1    unscreen: 0-lin 1-nonlin 2-no                           
   RPACOR =    1.200    partial core radius                                     
   POMASS =   14.001; ZVAL   =    5.000    mass and valenz                      
   RCORE  =    1.500    outmost cutoff radius                                   
   RWIGS  =    1.400; RWIGS  =    0.741    wigner-seitz radius (au A)           
   ENMAX  =  400.000; ENMIN  =  300.000 eV                                      
   ICORE  =        2    local potential                                         
   LCOR   =        T    correct aug charges                                     
   LPAW   =        T    paw PP                                                  
   EAUG   =  627.112                                                            
   DEXC   =    0.000                                                            
   RMAX   =    1.529    core radius for proj-oper                               
   RAUG   =    1.300    factor for augmentation sphere                          
   RDEP   =    1.514    radius for radial grids                                 
   RDEPT  =    1.338    core radius for aug-charge                              
                                                                                
   Atomic configuration                                                         
    4 entries                                                                   
     n  l   j            E        occ.                                          
     1  0  0.50      -384.7179   2.0000                                         
     2  0  0.50       -18.5828   2.0000                                         
     2  1  0.50        -7.0898   3.0000                                         
     3  2  1.50        -6.8029   0.0000                                         
   Description                                                                  
     l       E           TYP  RCUT    TYP  RCUT                                 
     0    -18.5828119     23  1.200                                             
     0    -13.5018863     23  1.200                                             
     1     -7.0897853     23  1.500                                             
     1      9.5240782     23  1.500                                             
     2     -6.8029130      7  1.500                                             
  local pseudopotential read in
  partial core-charges read in
  partial kinetic energy density read in
  atomic valenz-charges read in
  non local Contribution for L=           0  read in
    real space projection operators read in
  non local Contribution for L=           0  read in
    real space projection operators read in
  non local Contribution for L=           1  read in
    real space projection operators read in
  non local Contribution for L=           1  read in
    real space projection operators read in
    PAW grid and wavefunctions read in
 
   number of l-projection  operators is LMAX  =           4
   number of lm-projection operators is LMMAX =           8
 
 POTCAR:    PAW_PBE H 15Jun2001                   
   VRHFIN =H: ultrasoft test                                                    
   LEXCH  = PE                                                                  
   EATOM  =    12.4884 eV,    0.9179 Ry                                         
                                                                                
   TITEL  = PAW_PBE H 15Jun2001                                                 
   LULTRA =        F    use ultrasoft PP ?                                      
   IUNSCR =        0    unscreen: 0-lin 1-nonlin 2-no                           
   RPACOR =    0.000    partial core radius                                     
   POMASS =    1.000; ZVAL   =    1.000    mass and valenz                      
   RCORE  =    1.100    outmost cutoff radius                                   
   RWIGS  =    0.700; RWIGS  =    0.370    wigner-seitz radius (au A)           
   ENMAX  =  250.000; ENMIN  =  200.000 eV                                      
   RCLOC  =    0.701    cutoff for local pot                                    
   LCOR   =        T    correct aug charges                                     
   LPAW   =        T    paw PP                                                  
   EAUG   =  400.000                                                            
   RMAX   =    1.123    core radius for proj-oper                               
   RAUG   =    1.200    factor for augmentation sphere                          
   RDEP   =    1.112    radius for radial grids                                 
   RDEPT  =    0.926    core radius for aug-charge                              
                                                                                
   Atomic configuration                                                         
    2 entries                                                                   
     n  l   j            E        occ.                                          
     1  0  0.50        -6.4927   1.0000                                         
     2  1  0.50        -3.4015   0.0000                                         
   Description                                                                  
     l       E           TYP  RCUT    TYP  RCUT                                 
     0     -6.4927494     23  1.100                                             
     0      6.8029130     23  1.100                                             
     1     -4.0817478     23  1.100                                             
  local pseudopotential read in
  atomic valenz-charges read in
  non local Contribution for L=           0  read in
    real space projection operators read in
  non local Contribution for L=           0  read in
    real space projection operators read in
  non local Contribution for L=           1  read in
    real space projection operators read in
    PAW grid and wavefunctions read in
 
   number of l-projection  operators is LMAX  =           3
   number of lm-projection operators is LMMAX =           5
 
 POTCAR:    PAW_PBE Pb_d 06Sep2000                
   VRHFIN =Pb:                                                                  
   LEXCH  = PE                                                                  
   EATOM  =  1661.6185 eV,  122.1255 Ry                                         
                                                                                
   TITEL  = PAW_PBE Pb_d 06Sep2000                                              
   LULTRA =        F    use ultrasoft PP ?                                      
   IUNSCR =        1    unscreen: 0-lin 1-nonlin 2-no                           
   RPACOR =    2.200    partial core radius                                     
   POMASS =  207.200; ZVAL   =   14.000    mass and valenz                      
   RCORE  =    2.500    outmost cutoff radius                                   
   RWIGS  =    3.260; RWIGS  =    1.725    wigner-seitz radius (au A)           
   ENMAX  =  237.835; ENMIN  =  178.376 eV                                      
   ICORE  =        3    local potential                                         
   LCOR   =        T    correct aug charges                                     
   LPAW   =        T    paw PP                                                  
   EAUG   =  391.914                                                            
   DEXC   =    0.000                                                            
   RMAX   =    2.565    core radius for proj-oper                               
   RAUG   =    1.300    factor for augmentation sphere                          
   RDEP   =    2.643    radius for radial grids                                 
   RDEPT  =    2.092    core radius for aug-charge                              
                                                                                
   Atomic configuration                                                         
   16 entries                                                                   
     n  l   j            E        occ.                                          
     1  0  0.50    -88091.8466   2.0000                                         
     2  0  0.50    -15753.4197   2.0000                                         
     2  1  1.50    -13508.1797   6.0000                                         
     3  0  0.50     -3781.7194   2.0000                                         
     3  1  1.50     -3138.2529   6.0000                                         
     3  2  2.50     -2483.2977  10.0000                                         
     4  0  0.50      -856.2895   2.0000                                         
     4  1  1.50      -645.4942   6.0000                                         
     4  2  2.50      -401.8768  10.0000                                         
     4  3  3.50      -132.9059  14.0000                                         
     5  0  0.50      -144.0950   2.0000                                         
     5  1  1.50       -85.7879   6.0000                                         
     5  2  2.50       -21.1769  10.0000                                         
     6  0  0.50       -12.0372   2.0000                                         
     6  1  1.50        -3.4971   2.0000                                         
     5  3  2.50        -2.7212   0.0000                                         
   Description                                                                  
     l       E           TYP  RCUT    TYP  RCUT                                 
     2    -21.1768523     23  2.500                                             
     2      1.3605826     23  2.500                                             
     0    -12.0371562     23  2.500                                             
     0     13.6058260     23  2.500                                             
     1     -3.4971339     23  2.500                                             
     1     13.6058260     23  2.500                                             
     3     -1.3605826      7  2.500                                             
  local pseudopotential read in
  partial core-charges read in
  partial kinetic energy density read in
  atomic valenz-charges read in
  non local Contribution for L=           2  read in
    real space projection operators read in
  non local Contribution for L=           2  read in
    real space projection operators read in
  non local Contribution for L=           0  read in
    real space projection operators read in
  non local Contribution for L=           0  read in
    real space projection operators read in
  non local Contribution for L=           1  read in
    real space projection operators read in
  non local Contribution for L=           1  read in
    real space projection operators read in
    PAW grid and wavefunctions read in
 
   number of l-projection  operators is LMAX  =           6
   number of lm-projection operators is LMMAX =          18
 
 POTCAR:    PAW_PBE I 08Apr2002                   
   VRHFIN =I : s2p5                                                             
   LEXCH  = PE                                                                  
   EATOM  =   315.8678 eV,   23.2156 Ry                                         
                                                                                
   TITEL  = PAW_PBE I 08Apr2002                                                 
   LULTRA =        F    use ultrasoft PP ?                                      
   IUNSCR =        1    unscreen: 0-lin 1-nonlin 2-no                           
   RPACOR =    2.200    partial core radius                                     
   POMASS =  126.904; ZVAL   =    7.000    mass and valenz                      
   RCORE  =    2.300    outmost cutoff radius                                   
   RWIGS  =    2.810; RWIGS  =    1.487    wigner-seitz radius (au A)           
   ENMAX  =  175.647; ENMIN  =  131.735 eV                                      
   ICORE  =        3    local potential                                         
   LCOR   =        T    correct aug charges                                     
   LPAW   =        T    paw PP                                                  
   EAUG   =  370.139                                                            
   DEXC   =    0.000                                                            
   RMAX   =    2.359    core radius for proj-oper                               
   RAUG   =    1.300    factor for augmentation sphere                          
   RDEP   =    2.392    radius for radial grids                                 
   RDEPT  =    2.170    core radius for aug-charge                              
                                                                                
   Atomic configuration                                                         
   13 entries                                                                   
     n  l   j            E        occ.                                          
     1  0  0.50    -32976.3739   2.0000                                         
     2  0  0.50     -5094.5933   2.0000                                         
     2  1  1.50     -4572.0131   6.0000                                         
     3  0  0.50     -1028.2813   2.0000                                         
     3  1  1.50      -859.0250   6.0000                                         
     3  2  2.50      -605.7620  10.0000                                         
     4  0  0.50      -180.5540   2.0000                                         
     4  1  1.50      -127.5306   6.0000                                         
     4  2  2.50       -50.2720  10.0000                                         
     5  0  0.50       -17.4058   2.0000                                         
     5  1  0.50        -7.0851   5.0000                                         
     5  2  1.50        -7.0750   0.0000                                         
     4  3  2.50        -7.0750   0.0000                                         
   Description                                                                  
     l       E           TYP  RCUT    TYP  RCUT                                 
     0    -17.4058016     23  2.300                                             
     0    -18.7663842     23  2.300                                             
     1     -7.0850686     23  2.300                                             
     1     -4.2150896     23  2.300                                             
     2     -7.0750295     23  2.300                                             
     3     -1.3605826     23  2.300                                             
  local pseudopotential read in
  partial core-charges read in
  partial kinetic energy density read in
  atomic valenz-charges read in
  non local Contribution for L=           0  read in
    real space projection operators read in
  non local Contribution for L=           0  read in
    real space projection operators read in
  non local Contribution for L=           1  read in
    real space projection operators read in
  non local Contribution for L=           1  read in
    real space projection operators read in
  non local Contribution for L=           2  read in
    real space projection operators read in
    PAW grid and wavefunctions read in
 
   number of l-projection  operators is LMAX  =           5
   number of lm-projection operators is LMMAX =          13
 

 ----------------------------------------------------------------------------- 
|                                                                             |
|  ADVICE TO THIS USER RUNNING 'VASP/VAMP'   (HEAR YOUR MASTER'S VOICE ...):  |
|                                                                             |
|      You have a (more or less) 'large supercell' and for larger cells       |
|      it might be more efficient to use real space projection opertators     |
|      So try LREAL= Auto  in the INCAR   file.                               |
|      Mind: At the moment your POTCAR file does not contain real space       |
|       projectors, and has to be modified,  BUT if you                       |
|      want to do an extremely  accurate calculation you might also keep the  |
|      reciprocal projection scheme          (i.e. LREAL=.FALSE.)             |
|                                                                             |
 ----------------------------------------------------------------------------- 

  PAW_PBE C 08Apr2002                   :
 energy of atom  1       EATOM= -147.1560
 kinetic energy error for atom=    0.0032 (will be added to EATOM!!)
  PAW_PBE N 08Apr2002                   :
 energy of atom  2       EATOM= -264.5486
 kinetic energy error for atom=    0.0061 (will be added to EATOM!!)
  PAW_PBE H 15Jun2001                   :
 energy of atom  3       EATOM=  -12.4884
 kinetic energy error for atom=    0.0002 (will be added to EATOM!!)
  PAW_PBE Pb_d 06Sep2000                :
 energy of atom  4       EATOM=-1661.6185
 kinetic energy error for atom=    0.0012 (will be added to EATOM!!)
  PAW_PBE I 08Apr2002                   :
 energy of atom  5       EATOM= -315.8678
 kinetic energy error for atom=    0.0003 (will be added to EATOM!!)
 
 
 POSCAR: C N H Pb I                              
  positions in direct lattice
  No initial velocities read in
 exchange correlation table for  LEXCH =        8
   RHO(1)=    0.500       N(1)  =     2000
   RHO(2)=  100.500       N(2)  =     4000
 


--------------------------------------------------------------------------------------------------------


 ion  position               nearest neighbor table
   1  0.204  0.250  0.218-  33 1.10  25 1.10  17 1.11   9 1.49
   2  0.690  0.250  0.240-  34 1.10  26 1.10  18 1.11  10 1.49
   3  0.190  0.750  0.240-  35 1.10  27 1.10  19 1.11  11 1.49
   4  0.704  0.750  0.218-  36 1.10  28 1.10  20 1.11  12 1.49
   5  0.204  0.250  0.718-  37 1.10  29 1.10  21 1.11  13 1.49
   6  0.690  0.250  0.740-  38 1.10  30 1.10  22 1.11  14 1.49
   7  0.190  0.750  0.740-  39 1.10  31 1.10  23 1.11  15 1.49
   8  0.704  0.750  0.718-  40 1.10  32 1.10  24 1.11  16 1.49
   9  0.307  0.250  0.275-  57 1.04  41 1.05  49 1.05   1 1.49
  10  0.803  0.250  0.273-  42 1.05  50 1.05  58 1.05   2 1.49
  11  0.303  0.750  0.273-  43 1.05  51 1.05  59 1.05   3 1.49
  12  0.807  0.750  0.275-  60 1.04  44 1.05  52 1.05   4 1.49
  13  0.307  0.250  0.775-  61 1.04  45 1.05  53 1.05   5 1.49
  14  0.803  0.250  0.773-  46 1.05  54 1.05  62 1.05   6 1.49
  15  0.303  0.750  0.773-  47 1.05  55 1.05  63 1.05   7 1.49
  16  0.807  0.750  0.775-  64 1.04  48 1.05  56 1.05   8 1.49
  17  0.222  0.250  0.132-   1 1.11
  18  0.688  0.250  0.153-   2 1.11
  19  0.188  0.750  0.153-   3 1.11
  20  0.722  0.750  0.132-   4 1.11
  21  0.222  0.250  0.632-   5 1.11
  22  0.688  0.250  0.653-   6 1.11
  23  0.188  0.750  0.653-   7 1.11
  24  0.722  0.750  0.632-   8 1.11
  25  0.159  0.322  0.240-   1 1.10
  26  0.650  0.322  0.271-   2 1.10
  27  0.150  0.822  0.271-   3 1.10
  28  0.659  0.822  0.240-   4 1.10
  29  0.159  0.322  0.740-   5 1.10
  30  0.650  0.322  0.771-   6 1.10
  31  0.150  0.822  0.771-   7 1.10
  32  0.659  0.822  0.740-   8 1.10
  33  0.159  0.177  0.240-   1 1.10
  34  0.650  0.177  0.271-   2 1.10
  35  0.150  0.677  0.271-   3 1.10
  36  0.659  0.677  0.240-   4 1.10
  37  0.159  0.177  0.740-   5 1.10
  38  0.650  0.177  0.771-   6 1.10
  39  0.150  0.677  0.771-   7 1.10
  40  0.659  0.677  0.740-   8 1.10
  41  0.352  0.318  0.256-   9 1.05
  42  0.844  0.318  0.245-  10 1.05
  43  0.344  0.818  0.245-  11 1.05
  44  0.852  0.818  0.256-  12 1.05
  45  0.352  0.318  0.756-  13 1.05
  46  0.844  0.318  0.745-  14 1.05
  47  0.344  0.818  0.745-  15 1.05
  48  0.852  0.818  0.756-  16 1.05
  49  0.352  0.182  0.256-   9 1.05
  50  0.844  0.182  0.246-  10 1.05
  51  0.344  0.682  0.246-  11 1.05
  52  0.852  0.682  0.256-  12 1.05
  53  0.352  0.182  0.756-  13 1.05
  54  0.844  0.182  0.746-  14 1.05
  55  0.344  0.682  0.746-  15 1.05
  56  0.852  0.682  0.756-  16 1.05
  57  0.295  0.250  0.356-   9 1.04
  58  0.811  0.250  0.355-  10 1.05
  59  0.311  0.750  0.355-  11 1.05
  60  0.795  0.750  0.356-  12 1.04
  61  0.295  0.250  0.856-  13 1.04
  62  0.811  0.250  0.855-  14 1.05
  63  0.311  0.750  0.855-  15 1.05
  64  0.795  0.750  0.856-  16 1.04
  65  0.472  0.501  0.489-  90 3.09  85 3.14  87 3.17  77 3.17  73 3.22  89 3.27
  66  0.972  0.499  0.489-  89 3.09  88 3.14  86 3.17  78 3.17  74 3.22  90 3.27
  67  0.472  0.999  0.489-  92 3.09  85 3.14  87 3.17  79 3.17  75 3.22  91 3.27
  68  0.972  0.001  0.489-  91 3.09  88 3.14  86 3.17  80 3.17  76 3.22  92 3.27
  69  0.472  0.501  0.989-  94 3.09  81 3.14  83 3.17  73 3.17  77 3.22  93 3.27
  70  0.972  0.499  0.989-  93 3.09  84 3.14  82 3.17  74 3.17  78 3.22  94 3.27
  71  0.472  0.999  0.989-  96 3.09  81 3.14  83 3.17  75 3.17  79 3.22  95 3.27
  72  0.972  0.001  0.989-  95 3.09  84 3.14  82 3.17  76 3.17  80 3.22  96 3.27
  73  0.455  0.501  0.238-  69 3.17  65 3.22
  74  0.955  0.499  0.238-  70 3.17  66 3.22
  75  0.455  0.999  0.238-  71 3.17  67 3.22
  76  0.955  0.001  0.238-  72 3.17  68 3.22
  77  0.455  0.501  0.738-  65 3.17  69 3.22
  78  0.955  0.499  0.738-  66 3.17  70 3.22
  79  0.455  0.999  0.738-  67 3.17  71 3.22
  80  0.955  0.001  0.738-  68 3.17  72 3.22
  81  0.472  0.250  0.008-  71 3.14  69 3.14
  82  0.927  0.250  0.016-  72 3.17  70 3.17
  83  0.427  0.750  0.016-  69 3.17  71 3.17
  84  0.972  0.750  0.008-  70 3.14  72 3.14
  85  0.472  0.250  0.508-  67 3.14  65 3.14
  86  0.927  0.250  0.516-  68 3.17  66 3.17
  87  0.427  0.750  0.516-  65 3.17  67 3.17
  88  0.972  0.750  0.508-  66 3.14  68 3.14
  89  0.216  0.473  0.461-  66 3.09  65 3.27
  90  0.716  0.527  0.461-  65 3.09  66 3.27
  91  0.216  0.027  0.461-  68 3.09  67 3.27
  92  0.716  0.973  0.461-  67 3.09  68 3.27
  93  0.216  0.473  0.961-  70 3.09  69 3.27
  94  0.716  0.527  0.961-  69 3.09  70 3.27
  95  0.216  0.027  0.961-  72 3.09  71 3.27
  96  0.716  0.973  0.961-  71 3.09  72 3.27
 
  LATTYP: Found a triclinic cell.
 ALAT       =    17.8238589327
 B/A-ratio  =     0.6989248630
 C/A-ratio  =     1.0156975818
 COS(alpha) =     0.0001355172
 COS(beta)  =     0.5146378593
 COS(gamma) =     0.6988877578
  
  Lattice vectors:
  
 A1 = (  -0.1406063366, -12.4576271275, -12.7466742118)
 A2 = (  -0.0011956322, -12.4575380825,   0.0007464135)
 A3 = ( -12.7162481321,  -0.0020049566, -12.8856194186)


Analysis of symmetry for initial positions (statically):
=====================================================================
 Subroutine PRICEL returns following result:
 
  LATTYP: Found a triclinic cell.
 ALAT       =     8.8502626515
 B/A-ratio  =     1.4075896561
 C/A-ratio  =     0.7202149489
 COS(alpha) =     0.0000518785
 COS(beta)  =     0.0156138721
 COS(gamma) =     0.7036188608
  
  Lattice vectors:
  
 A1 = (  -6.2878208978,   6.2278110854,  -0.0694726034)
 A2 = (   0.0011956322,  12.4575380825,  -0.0007464135)
 A3 = (  -0.0697053522,  -0.0000445225,  -6.3737103126)
 
   4 primitive cells build up your supercell.
 

 Routine SETGRP: Setting up the symmetry group for a 
 triclinic supercell.


 Subroutine GETGRP returns: Found  1 space group operations
 (whereof  1 operations were pure point group operations)
 out of a pool of  2 trial point group operations.


The static configuration has the point symmetry C_1 .


Analysis of symmetry for dynamics (positions and initial velocities):
=====================================================================
 Subroutine PRICEL returns following result:
 
  LATTYP: Found a triclinic cell.
 ALAT       =     8.8502626515
 B/A-ratio  =     1.4075896561
 C/A-ratio  =     0.7202149489
 COS(alpha) =     0.0000518785
 COS(beta)  =     0.0156138721
 COS(gamma) =     0.7036188608
  
  Lattice vectors:
  
 A1 = (  -6.2878208978,   6.2278110854,  -0.0694726034)
 A2 = (   0.0011956322,  12.4575380825,  -0.0007464135)
 A3 = (  -0.0697053522,  -0.0000445225,  -6.3737103126)
 
   4 primitive cells build up your supercell.
 

 Routine SETGRP: Setting up the symmetry group for a 
 triclinic supercell.


 Subroutine GETGRP returns: Found  1 space group operations
 (whereof  1 operations were pure point group operations)
 out of a pool of  2 trial point group operations.


The dynamic configuration has the point symmetry C_1 .


 Subroutine INISYM returns: Found  1 space group operations
 (whereof  1 operations are pure point group operations),
 and found     4 'primitive' translations

 
 
 KPOINTS: Automatic 3x3x3                         

Automatic generation of k-mesh.
Space group operators:
 irot       det(A)        alpha          n_x          n_y          n_z        tau_x        tau_y        tau_z
    1     1.000000     0.000000     1.000000     0.000000     0.000000     0.000000     0.000000     0.000000
 
 Subroutine IBZKPT returns following result:
 ===========================================
 
 Found     14 irreducible k-points:
 
 Following reciprocal coordinates:
            Coordinates               Weight
  0.000000  0.000000  0.000000      1.000000
  0.333333 -0.000000 -0.000000      2.000000
  0.000000  0.333333 -0.000000      2.000000
  0.333333  0.333333  0.000000      2.000000
 -0.333333  0.333333  0.000000      2.000000
  0.000000  0.000000  0.333333      2.000000
  0.333333  0.000000  0.333333      2.000000
 -0.333333  0.000000  0.333333      2.000000
  0.000000  0.333333  0.333333      2.000000
  0.333333  0.333333  0.333333      2.000000
 -0.333333  0.333333  0.333333      2.000000
  0.000000 -0.333333  0.333333      2.000000
  0.333333 -0.333333  0.333333      2.000000
 -0.333333 -0.333333  0.333333      2.000000
 
 Following cartesian coordinates:
            Coordinates               Weight
  0.000000  0.000000  0.000000      1.000000
  0.026507 -0.000003 -0.000290      2.000000
 -0.000004  0.026758 -0.000000      2.000000
  0.026503  0.026755 -0.000290      2.000000
 -0.026511  0.026760  0.000290      2.000000
 -0.000287  0.000002  0.026152      2.000000
  0.026220 -0.000001  0.025862      2.000000
 -0.026794  0.000004  0.026442      2.000000
 -0.000291  0.026759  0.026152      2.000000
  0.026215  0.026757  0.025862      2.000000
 -0.026798  0.026762  0.026442      2.000000
 -0.000283 -0.026756  0.026152      2.000000
  0.026224 -0.026759  0.025862      2.000000
 -0.026790 -0.026753  0.026442      2.000000
 
 
 Subroutine IBZKPT_HF returns following result:
 ==============================================
 
 Found     27 k-points in 1st BZ
 the following     27 k-points will be used (e.g. in the exchange kernel)
 Following reciprocal coordinates:   # in IRBZ
  0.000000  0.000000  0.000000    0.03703704   1 t-inv F
  0.333333 -0.000000 -0.000000    0.03703704   2 t-inv F
  0.000000  0.333333 -0.000000    0.03703704   3 t-inv F
  0.333333  0.333333  0.000000    0.03703704   4 t-inv F
 -0.333333  0.333333  0.000000    0.03703704   5 t-inv F
  0.000000  0.000000  0.333333    0.03703704   6 t-inv F
  0.333333  0.000000  0.333333    0.03703704   7 t-inv F
 -0.333333  0.000000  0.333333    0.03703704   8 t-inv F
  0.000000  0.333333  0.333333    0.03703704   9 t-inv F
  0.333333  0.333333  0.333333    0.03703704  10 t-inv F
 -0.333333  0.333333  0.333333    0.03703704  11 t-inv F
  0.000000 -0.333333  0.333333    0.03703704  12 t-inv F
  0.333333 -0.333333  0.333333    0.03703704  13 t-inv F
 -0.333333 -0.333333  0.333333    0.03703704  14 t-inv F
 -0.333333  0.000000  0.000000    0.03703704   2 t-inv T
 -0.000000 -0.333333  0.000000    0.03703704   3 t-inv T
 -0.333333 -0.333333 -0.000000    0.03703704   4 t-inv T
  0.333333 -0.333333 -0.000000    0.03703704   5 t-inv T
 -0.000000  0.000000 -0.333333    0.03703704   6 t-inv T
 -0.333333 -0.000000 -0.333333    0.03703704   7 t-inv T
  0.333333 -0.000000 -0.333333    0.03703704   8 t-inv T
 -0.000000 -0.333333 -0.333333    0.03703704   9 t-inv T
 -0.333333 -0.333333 -0.333333    0.03703704  10 t-inv T
  0.333333 -0.333333 -0.333333    0.03703704  11 t-inv T
 -0.000000  0.333333 -0.333333    0.03703704  12 t-inv T
 -0.333333  0.333333 -0.333333    0.03703704  13 t-inv T
  0.333333  0.333333 -0.333333    0.03703704  14 t-inv T


--------------------------------------------------------------------------------------------------------




 Dimension of arrays:
   k-points           NKPTS =     14   k-points in BZ     NKDIM =     27   number of bands    NBANDS=    256
   number of dos      NEDOS =    301   number of ions     NIONS =     96
   non local maximal  LDIM  =      6   non local SUM 2l+1 LMDIM =     18
   total plane-waves  NPLWV = ******
   max r-space proj   IRMAX =      1   max aug-charges    IRDMAX= 314103
   dimension x,y,z NGX =   112 NGY =  108 NGZ =  112
   dimension x,y,z NGXF=   224 NGYF=  216 NGZF=  224
   support grid    NGXF=   448 NGYF=  432 NGZF=  448
   ions per type =               8   8  48   8  24
 NGX,Y,Z   is equivalent  to a cutoff of  14.80, 14.41, 14.61 a.u.
 NGXF,Y,Z  is equivalent  to a cutoff of  29.61, 28.83, 29.21 a.u.


 I would recommend the setting:
   dimension x,y,z NGX =   109 NGY =  107 NGZ =  110
 SYSTEM =  MAPbI3-Cubic                            
 POSCAR =  C N H Pb I                              

 Startparameter for this run:
   NWRITE =      2    write-flag & timer
   PREC   = accura    normal or accurate (medium, high low for compatibility)
   ISTART =      0    job   : 0-new  1-cont  2-samecut
   ICHARG =      2    charge: 1-file 2-atom 10-const
   ISPIN  =      1    spin polarized calculation?
   LNONCOLLINEAR =      F non collinear calculations
   LSORBIT =      F    spin-orbit coupling
   INIWAV =      1    electr: 0-lowe 1-rand  2-diag
   LASPH  =      F    aspherical Exc in radial PAW
   METAGGA=      F    non-selfconsistent MetaGGA calc.

 Electronic Relaxation 1
   ENCUT  =  700.0 eV  51.45 Ry    7.17 a.u.  27.13 26.87 27.50*2*pi/ulx,y,z
   ENINI  =  700.0     initial cutoff
   ENAUG  =  644.9 eV  augmentation charge cutoff
   NELM   =     60;   NELMIN=  2; NELMDL= -5     # of ELM steps 
   EDIFF  = 0.1E-07   stopping-criterion for ELM
   LREAL  =      F    real-space projection
   NLSPLINE    = F    spline interpolate recip. space projectors
   LCOMPAT=      F    compatible to vasp.4.4
   GGA_COMPAT  = T    GGA compatible to vasp.4.4-vasp.4.6
   LMAXPAW     = -100 max onsite density
   LMAXMIX     =    2 max onsite mixed and CHGCAR
   VOSKOWN=      0    Vosko Wilk Nusair interpolation
   ROPT   =    0.00000   0.00000   0.00000   0.00000
   ROPT   =    0.00000
 Ionic relaxation
   EDIFFG = 0.1E-06   stopping-criterion for IOM
   NSW    =      0    number of steps for IOM
   NBLOCK =      1;   KBLOCK =      1    inner block; outer block 
   IBRION =     -1    ionic relax: 0-MD 1-quasi-New 2-CG
   NFREE  =      0    steps in history (QN), initial steepest desc. (CG)
   ISIF   =      2    stress and relaxation
   IWAVPR =     10    prediction:  0-non 1-charg 2-wave 3-comb
   ISYM   =      3    0-nonsym 1-usesym 2-fastsym
   LCORR  =      T    Harris-Foulkes like correction to forces

   POTIM  = 0.5000    time-step for ionic-motion
   TEIN   =    0.0    initial temperature
   TEBEG  =    0.0;   TEEND  =   0.0 temperature during run
   SMASS  =  -3.00    Nose mass-parameter (am)
   estimated Nose-frequenzy (Omega)   =  0.10E-29 period in steps =****** mass=  -0.362E-26a.u.
   SCALEE = 1.0000    scale energy and forces
   NPACO  =    256;   APACO  = 16.0  distance and # of slots for P.C.
   PSTRESS=    0.0 pullay stress

  Mass of Ions in am
   POMASS =  12.01 14.00  1.00207.20126.90
  Ionic Valenz
   ZVAL   =   4.00  5.00  1.00 14.00  7.00
  Atomic Wigner-Seitz radii
   RWIGS  =  -1.00 -1.00 -1.00 -1.00 -1.00
  virtual crystal weights 
   VCA    =   1.00  1.00  1.00  1.00  1.00
   NELECT =     400.0000    total number of electrons
   NUPDOWN=      -1.0000    fix difference up-down

 DOS related values:
   EMIN   =  10.00;   EMAX   =-10.00  energy-range for DOS
   EFERMI =   0.00
   ISMEAR =     0;   SIGMA  =   0.00  broadening in eV -4-tet -1-fermi 0-gaus

 Electronic relaxation 2 (details)
   IALGO  =     58    algorithm
   LDIAG  =      T    sub-space diagonalisation (order eigenvalues)
   LSUBROT=      F    optimize rotation matrix (better conditioning)
   TURBO    =      0    0=normal 1=particle mesh
   IRESTART =      0    0=no restart 2=restart with 2 vectors
   NREBOOT  =      0    no. of reboots
   NMIN     =      0    reboot dimension
   EREF     =   0.00    reference energy to select bands
   IMIX   =      4    mixing-type and parameters
     AMIX     =   0.40;   BMIX     =  1.00
     AMIX_MAG =   1.60;   BMIX_MAG =  1.00
     AMIN     =   0.10
     WC   =   100.;   INIMIX=   1;  MIXPRE=   1;  MAXMIX= -45

 Intra band minimization:
   WEIMIN = 0.0000     energy-eigenvalue tresh-hold
   EBREAK =  0.98E-11  absolut break condition
   DEPER  =   0.30     relativ break condition  

   TIME   =   0.40     timestep for ELM

  volume/ion in A,a.u.               =      20.80       140.38
  Fermi-wavevector in a.u.,A,eV,Ry     =   0.957863  1.810099 12.483376  0.917502
  Thomas-Fermi vector in A             =   2.086919
 
 Write flags
   LWAVE  =      F    write WAVECAR
   LCHARG =      F    write CHGCAR
   LVTOT  =      F    write LOCPOT, total local potential
   LVHAR  =      F    write LOCPOT, Hartree potential only
   LELF   =      F    write electronic localiz. function (ELF)
   LORBIT =      0    0 simple, 1 ext, 2 COOP (PROOUT)


 Dipole corrections
   LMONO  =      F    monopole corrections only (constant potential shift)
   LDIPOL =      F    correct potential (dipole corrections)
   IDIPOL =      0    1-x, 2-y, 3-z, 4-all directions 
   EPSILON=  1.0000000 bulk dielectric constant

 Core level calculations are selected ICORELEVEL =  1
 Exchange correlation treatment:
   GGA     =    PE    GGA type
   LEXCH   =     8    internal setting for exchange type
   VOSKOWN=      0    Vosko Wilk Nusair interpolation
   EXXOEP  =     0    0=HF, 1=EXX-LHF (local Hartree Fock) 2=EXX OEP
   LHFCALC =     T    Hartree Fock is set to
   LSYMGRAD=     F    symmetrize gradient (conserves proper symmetry)
   PRECFOCK=fast      Normal, Fast or Accurate (Low or Medium for compatibility)
   LRHFCALC=     F    long range Hartree Fock
   LRSCOR  =     F    long range correlation only (use DFT for short range part)
   LTHOMAS =     F    Thomas Fermi screening in HF
   LMODELHF=     F    short range full HF, long range fraction AEXX
   ENCUT4O =  -1.0   cutoff for four orbital integrals eV
   LMAXFOCK=     4    L truncation for augmentation on plane wave grid
   LMAXFOCKAE=  -1    L truncation for all-electron charge restoration on plane wave grid
   NMAXFOCKAE=   1    number of basis functions for all-electron charge restoration
   LFOCKAEDFT=     F  apply the AE augmentation even for DFT
   NKREDX  =     1    reduce k-point grid by
   NKREDY  =     1    reduce k-point grid by
   NKREDZ  =     1    reduce k-point grid by
   SHIFTRED=     F    shift reduced grid of Gamma
   HFKIDENT=     F    idential grid for each k-point
   ODDONLY =     F    use only odd q-grid points
   EVENONLY=     F    use only even q-grid points
   HFALPHA =   -1.0000 decay constant for conv. correction
   MCALPHA =    0.0000 extent of test-charge in conv. correction in multipole expansion
   AEXX    =    0.2500 exact exchange contribution
   HFSCREEN=    0.2070 screening length (either q_TF or 0.3 A-1)
   HFSCREENC=   0.2070 screening length for correlation (either q_TF or 0.3 A-1)
   HFRCUT  =    0.0000 spherical cutoff for potential kernel
   ALDAX   =    0.7500 LDA exchange part
   AGGAX   =    0.7500 GGA exchange part
   ALDAC   =    1.0000 LDA correlation
   AGGAC   =    1.0000 GGA correlation
   NBANDSGWLOW=     1    first orbital included in HF term
   ENCUTFOCK=  -1.0 apply spherical cutoff to Coloumb kernel
 Linear response parameters
   LEPSILON=     F    determine dielectric tensor
   LRPA    =     F    only Hartree local field effects (RPA)
   LNABLA  =     F    use nabla operator in PAW spheres
   LVEL    =     F    velocity operator in full k-point grid
   LINTERFAST=   F  fast interpolation
   KINTER  =     0    interpolate to denser k-point grid
   CSHIFT  =0.1000    complex shift for real part using Kramers Kronig
   OMEGAMAX=  -1.0    maximum frequency
   DEG_THRESHOLD= 0.2000000E-02 threshold for treating states as degnerate
   RTIME   =    0.100 relaxation time in fs

 Orbital magnetization related:
   ORBITALMAG=     F  switch on orbital magnetization
   LCHIMAG   =     F  perturbation theory with respect to B field
   DQ        =  0.001000  dq finite difference perturbation B field



--------------------------------------------------------------------------------------------------------


 Static calculation
 charge density and potential will be updated during run
 non-spin polarized calculation
 Conjugate gradient for all bands (Freysoldt, et al. PRB 79, 241103 (2009))
 preconditioned conjugated gradient                                        
 perform sub-space diagonalisation
    before iterative eigenvector-optimisation
 modified Broyden-mixing scheme, WC =      100.0
 initial mixing is a Kerker type mixing with AMIX =  0.4000 and BMIX =      1.0000
 Hartree-type preconditioning will be used
 using additional bands           56
 reciprocal scheme for non local part
 use partial core corrections
 no Harris-corrections to forces 
 use gradient corrections 
 use of overlap-Matrix (Vanderbilt PP)
 Gauss-broadening in eV      SIGMA  =   0.00


--------------------------------------------------------------------------------------------------------


  energy-cutoff  :      700.00
  volume of cell :     1996.98
      direct lattice vectors                 reciprocal lattice vectors
    12.576837428  0.001915912  0.138198793     0.079520802 -0.000007684 -0.000869670
     0.001195632 12.457538083 -0.000746413    -0.000012224  0.080272684 -0.000000427
     0.139410704  0.000089045 12.747420625    -0.000862111  0.000004784  0.078456671

  length of vectors
    12.577596840 12.457538162 12.748182927     0.079525558  0.080272685  0.078461408


 
 k-points in units of 2pi/SCALE and weight: Automatic 3x3x3                         
   0.00000000  0.00000000  0.00000000       0.037
   0.02650693 -0.00000256 -0.00028989       0.074
  -0.00000407  0.02675756 -0.00000014       0.074
   0.02650286  0.02675500 -0.00029003       0.074
  -0.02651101  0.02676012  0.00028975       0.074
  -0.00028737  0.00000159  0.02615222       0.074
   0.02621956 -0.00000097  0.02586233       0.074
  -0.02679430  0.00000416  0.02644211       0.074
  -0.00029144  0.02675916  0.02615208       0.074
   0.02621549  0.02675659  0.02586219       0.074
  -0.02679838  0.02676172  0.02644197       0.074
  -0.00028330 -0.02675597  0.02615237       0.074
   0.02622364 -0.02675853  0.02586248       0.074
  -0.02679023 -0.02675341  0.02644226       0.074
 
 k-points in reciprocal lattice and weights: Automatic 3x3x3                         
   0.00000000  0.00000000  0.00000000       0.037
   0.33333333 -0.00000000 -0.00000000       0.074
   0.00000000  0.33333333 -0.00000000       0.074
   0.33333333  0.33333333  0.00000000       0.074
  -0.33333333  0.33333333  0.00000000       0.074
   0.00000000  0.00000000  0.33333333       0.074
   0.33333333  0.00000000  0.33333333       0.074
  -0.33333333  0.00000000  0.33333333       0.074
   0.00000000  0.33333333  0.33333333       0.074
   0.33333333  0.33333333  0.33333333       0.074
  -0.33333333  0.33333333  0.33333333       0.074
   0.00000000 -0.33333333  0.33333333       0.074
   0.33333333 -0.33333333  0.33333333       0.074
  -0.33333333 -0.33333333  0.33333333       0.074
 
 position of ions in fractional coordinates (direct lattice) 
   0.20415478  0.24993813  0.21776282
   0.68983348  0.24987842  0.24006789
   0.18983348  0.74987842  0.24006789
   0.70415478  0.74993813  0.21776282
   0.20415478  0.24993813  0.71776282
   0.68983348  0.24987842  0.74006789
   0.18983348  0.74987842  0.74006789
   0.70415478  0.74993813  0.71776282
   0.30650776  0.25002629  0.27451512
   0.80256667  0.24998099  0.27325347
   0.30256667  0.74998099  0.27325347
   0.80650776  0.75002629  0.27451512
   0.30650776  0.25002629  0.77451512
   0.80256667  0.24998099  0.77325347
   0.30256667  0.74998099  0.77325347
   0.80650776  0.75002629  0.77451512
   0.22192415  0.24982015  0.13241364
   0.68822618  0.24982205  0.15336362
   0.18822618  0.74982205  0.15336362
   0.72192415  0.74982015  0.13241364
   0.22192415  0.24982015  0.63241364
   0.68822618  0.24982205  0.65336362
   0.18822618  0.74982205  0.65336362
   0.72192415  0.74982015  0.63241364
   0.15881346  0.32246358  0.23988939
   0.64986216  0.32224079  0.27114125
   0.14986216  0.82224079  0.27114125
   0.65881346  0.82246358  0.23988939
   0.15881346  0.32246358  0.73988939
   0.64986216  0.32224079  0.77114125
   0.14986216  0.82224079  0.77114125
   0.65881346  0.82246358  0.73988939
   0.15887302  0.17745897  0.24007757
   0.65001264  0.17749318  0.27122384
   0.15001264  0.67749318  0.27122384
   0.65887302  0.67745897  0.24007757
   0.15887302  0.17745897  0.74007757
   0.65001264  0.17749318  0.77122384
   0.15001264  0.67749318  0.77122384
   0.65887302  0.67745897  0.74007757
   0.35237242  0.31811309  0.25608063
   0.84389673  0.31763547  0.24543235
   0.34389673  0.81763547  0.24543235
   0.85237242  0.81811309  0.25608063
   0.35237242  0.31811309  0.75608063
   0.84389673  0.31763547  0.74543235
   0.34389673  0.81763547  0.74543235
   0.85237242  0.81811309  0.75608063
   0.35239900  0.18187634  0.25627010
   0.84401160  0.18233343  0.24551170
   0.34401160  0.68233343  0.24551170
   0.85239900  0.68187634  0.25627010
   0.35239900  0.18187634  0.75627010
   0.84401160  0.18233343  0.74551170
   0.34401160  0.68233343  0.74551170
   0.85239900  0.68187634  0.75627010
   0.29512872  0.25015542  0.35592827
   0.81121143  0.25003162  0.35529022
   0.31121143  0.75003162  0.35529022
   0.79512872  0.75015542  0.35592827
   0.29512872  0.25015542  0.85592827
   0.81121143  0.25003162  0.85529022
   0.31121143  0.75003162  0.85529022
   0.79512872  0.75015542  0.85592827
   0.47244805  0.50115746  0.48880989
   0.97243550  0.49882213  0.48881300
   0.47243550  0.99882213  0.48881300
   0.97244805  0.00115746  0.48880989
   0.47244805  0.50115746  0.98880989
   0.97243550  0.49882213  0.98881300
   0.47243550  0.99882213  0.98881300
   0.97244805  0.00115746  0.98880989
   0.45476107  0.50061279  0.23756904
   0.95472627  0.49936931  0.23757644
   0.45472627  0.99936931  0.23757644
   0.95476107  0.00061279  0.23756904
   0.45476107  0.50061279  0.73756904
   0.95472627  0.49936931  0.73757644
   0.45472627  0.99936931  0.73757644
   0.95476107  0.00061279  0.73756904
   0.47212838  0.24997457  0.00760527
   0.92714250  0.24998345  0.01605916
   0.42714250  0.74998345  0.01605916
   0.97212838  0.74997457  0.00760527
   0.47212838  0.24997457  0.50760527
   0.92714250  0.24998345  0.51605916
   0.42714250  0.74998345  0.51605916
   0.97212838  0.74997457  0.50760527
   0.21617687  0.47315061  0.46123970
   0.71616601  0.52684427  0.46123971
   0.21616601  0.02684427  0.46123971
   0.71617687  0.97315061  0.46123970
   0.21617687  0.47315061  0.96123970
   0.71616601  0.52684427  0.96123971
   0.21616601  0.02684427  0.96123971
   0.71617687  0.97315061  0.96123970
 
 position of ions in cartesian coordinates  (Angst):
   2.59827880  3.11402435  2.80394160
   8.70969037  3.11421293  3.15539405
   2.42186947  9.34202401  3.08592144
   8.88729533  9.34375135  2.87266779
   2.66798415  3.11406888  9.17765192
   8.77939572  3.11425745  9.52910436
   2.49157483  9.34206853  9.45963175
   8.95700068  9.34379587  9.24637811
   3.89346760  3.11532376  3.54153210
  10.13214393  3.11570965  3.59400410
   3.84432304  9.34352074  3.52453150
  10.18248413  9.34505076  3.61025829
   3.96317295  3.11536828  9.91524241
  10.20184929  3.11575418  9.96771441
   3.91402839  9.34356526  9.89824181
  10.25218948  9.34509528  9.98396860
   2.80986258  3.11258097  1.71841551
   8.67738800  3.11349988  2.04991607
   2.38956711  9.34131097  1.98044346
   9.09887911  9.34230797  1.78714170
   2.87956794  3.11262550  8.09212582
   8.74709336  3.11354441  8.42362638
   2.45927246  9.34135549  8.35415378
   9.16858447  9.34235249  8.16085201
   2.03119972  4.01742798  3.07967804
   8.21139597  4.01559616  3.54592123
   1.92357508 10.24340724  3.47644863
   8.32021625 10.24715498  3.14840423
   2.10090507  4.01747250  9.45338836
   8.28110133  4.01564068  9.91963155
   1.99328043 10.24345177  9.85015894
   8.38992160 10.24719950  9.52211455
   2.03180176  2.21102765  3.08219338
   8.21312706  2.21239752  3.54710289
   1.92530616  8.44020860  3.47763028
   8.32081829  8.44075465  3.15091957
   2.10150711  2.21107218  9.45590369
   8.28283241  2.21244204  9.92081320
   1.99501151  8.44025312  9.85134059
   8.39052364  8.44079917  9.52462988
   4.46781141  3.96360390  3.31282747
  10.64814767  3.95859467  3.24501788
   4.36032677 10.18640576  3.17554528
  10.75682794 10.19333090  3.38155366
   4.53751676  3.96364842  9.68653778
  10.71785302  3.95863919  9.61872819
   4.43003213 10.18645028  9.54925559
  10.82653329 10.19337542  9.75526397
   4.46800914  2.26642947  3.31534817
  10.64944170  2.27306457  3.24614614
   4.36162080  8.50087566  3.17667354
  10.75702567  8.49615646  3.38407436
   4.53771449  2.26647399  9.68905848
  10.71914705  2.27310909  9.61985646
   4.43132615  8.50092018  9.55038385
  10.82673102  8.49620099  9.75778467
   3.76170523  3.11691783  4.57776708
  10.25230444  3.11636429  4.64095569
   3.96448354  9.34417537  4.57148308
  10.05072176  9.34664483  4.64649327
   3.83141058  3.11696236 10.95147739
  10.32200979  3.11640881 11.01466600
   4.03418889  9.34421990 10.94519339
  10.12042711  9.34668935 11.02020358
   6.01064689  6.24413682  6.29598296
  12.29890535  6.21600232  6.36512205
   6.01108445 12.44381341  6.29564944
  12.29846779  0.01632574  6.36545556
   6.08035224  6.24418135 12.66969327
  12.36861070  6.21604684 12.73883236
   6.08078980 12.44385793 12.66935976
  12.36817314  0.01637026 12.73916588
   5.75317432  6.23729531  3.09086627
  12.04115490  6.22276253  3.16005612
   5.75333400 12.45057362  3.09058352
  12.04099521  0.00948423  3.16033887
   5.82287967  6.23733983  9.46457658
  12.11086025  6.22280705  9.53376644
   5.82303936 12.45061814  9.46429383
  12.11070057  0.00952875  9.53404918
   5.93924104  3.11497293  0.16200860
  11.66305817  3.11595615  0.33265628
   5.37523727  9.34376723  0.26318368
  12.22825757  9.34469992  0.23073479
   6.00894639  3.11501745  6.53571892
  11.73276352  3.11600067  6.70636659
   5.44494262  9.34381176  6.63689399
  12.29796292  9.34474445  6.60444511
   2.78368879  5.89474695  5.90913865
   9.07203513  6.56459568  5.97819657
   2.78301860  0.33486869  5.90947038
   9.07270532 12.12447395  5.97786484
   2.85339414  5.89479148 12.28284897
   9.14174048  6.56464021 12.35190689
   2.85272395  0.33491321 12.28318070
   9.14241067 12.12451847 12.35157516
 


--------------------------------------------------------------------------------------------------------


 k-point  1 :   0.0000 0.0000 0.0000  plane waves:   84007
 k-point  2 :   0.3333-0.0000-0.0000  plane waves:   84003
 k-point  3 :   0.0000 0.3333-0.0000  plane waves:   83995
 k-point  4 :   0.3333 0.3333 0.0000  plane waves:   84018
 k-point  5 :  -0.3333 0.3333 0.0000  plane waves:   84019
 k-point  6 :   0.0000 0.0000 0.3333  plane waves:   83960
 k-point  7 :   0.3333 0.0000 0.3333  plane waves:   83937
 k-point  8 :  -0.3333 0.0000 0.3333  plane waves:   83982
 k-point  9 :   0.0000 0.3333 0.3333  plane waves:   83984
 k-point 10 :   0.3333 0.3333 0.3333  plane waves:   84012
 k-point 11 :  -0.3333 0.3333 0.3333  plane waves:   83970
 k-point 12 :   0.0000-0.3333 0.3333  plane waves:   83977
 k-point 13 :   0.3333-0.3333 0.3333  plane waves:   84013
 k-point 14 :  -0.3333-0.3333 0.3333  plane waves:   83973

 maximum and minimum number of plane-waves per node :      7062     6951

 maximum number of plane-waves:     84019
 maximum index in each direction: 
   IXMAX=   27   IYMAX=   27   IZMAX=   27
   IXMIN=  -27   IYMIN=  -27   IZMIN=  -27

 NGX is ok and might be reduce to 110
 WARNING: aliasing errors must be expected set NGY to 110 to avoid them
 NGZ is ok and might be reduce to 110
 aliasing errors are usually negligible using standard VASP settings
 and one can safely disregard these warnings

 parallel 3D FFT for wavefunctions:
    minimum data exchange during FFTs selected (reduces bandwidth)
 parallel 3D FFT for charge:
    minimum data exchange during FFTs selected (reduces bandwidth)


 FFT grid for exact exchange (Hartree Fock) 
  NGX = 56; NGY = 56; NGZ = 60

 
 Radii for the augmentation spheres in the non-local exchange
 for species   1 augmentation radius   0.944 (default was   0.699)
       energy cutoff for augmentation   2800.0
 for species   2 augmentation radius   0.957 (default was   0.709)
       energy cutoff for augmentation   2800.0
 for species   3 augmentation radius   0.702 (default was   0.520)
       energy cutoff for augmentation   2800.0
 for species   4 augmentation radius   1.558 (default was   1.154)
       energy cutoff for augmentation   2800.0
 for species   5 augmentation radius   1.603 (default was   1.188)
       energy cutoff for augmentation   2800.0

 real space projection operators:
  total allocation   :      10797.00 KBytes
  max/ min on nodes  :       1210.75        487.92

 Maximum index for augmentation-charges in exchange          232
  SETUP_FOCK is finished

 total amount of memory used by VASP on root node   222685. kBytes
========================================================================

   base      :      30000. kBytes
   nonl-proj :      82891. kBytes
   fftplans  :      15020. kBytes
   grid      :      12652. kBytes
   one-center:        124. kBytes
   HF        :        259. kBytes
   nonlr-proj:       4153. kBytes
   wavefun   :      77586. kBytes
 
     INWAV:  cpu time    0.0000: real time    0.0000
 Broyden mixing: mesh for mixing (old mesh)
   NGX = 55   NGY = 53   NGZ = 55
  (NGX  =224   NGY  =216   NGZ  =224)
  gives a total of 160325 points

 initial charge density was supplied:
 charge density of overlapping atoms calculated
 number of electron     400.0000000 magnetization 
 keeping initial charge density in first step


--------------------------------------------------------------------------------------------------------


 Maximum index for augmentation-charges         5404 (set IRDMAX)


--------------------------------------------------------------------------------------------------------


 First call to EWALD:  gamma=   0.141
 Maximum number of real-space cells 3x 3x 3
 Maximum number of reciprocal cells 3x 3x 3

 FEWALD executed in parallel
    FEWALD:  cpu time    0.0160: real time    0.0157


----------------------------------------- Iteration    1(   1)  ---------------------------------------


    POTLOK:  cpu time    0.2560: real time    0.2573
    SETDIJ:  cpu time    0.4720: real time    0.4724
    TRIAL :  cpu time    4.4643: real time    4.4703
    CORREC:  cpu time    0.0040: real time    0.0021
    --------------------------------------------
      LOOP:  cpu time    5.2123: real time    5.8744

 eigenvalue-minimisations  : 11776
 total energy-change (2. order) : 0.3465572E+05  (-0.1145115E+06)
 number of electron     400.0000000 magnetization 
 augmentation part      400.0000000 magnetization 

 Free energy of the ion-electron system (eV)
  ---------------------------------------------------
  alpha Z        PSCENC =       370.05370877
  Ewald energy   TEWEN  =    -15548.77075954
  -Hartree energ DENC   =     -8105.55454996
  -exchange      EXHF   =         0.00000000
  -V(xc)+E(xc)   XCENC  =       254.40056066
  PAW double counting   =     20708.16285019   -20051.16882790
  entropy T*S    EENTRO =        -0.00004179
  eigenvalues    EBANDS =     32348.17448820
  atomic energy  EATOM  =     24680.42500649
  ---------------------------------------------------
  free energy    TOTEN  =     34655.72243512 eV

  energy without entropy =    34655.72247691  energy(sigma->0) =    34655.72245602
  exchange ACFDT corr.  =         0.00000000  see jH, gK, PRB 81, 115126


--------------------------------------------------------------------------------------------------------




----------------------------------------- Iteration    1(   2)  ---------------------------------------


    TRIAL :  cpu time    3.4882: real time    3.4914
    CORREC:  cpu time    0.0040: real time    0.0027
    --------------------------------------------
      LOOP:  cpu time    3.4922: real time    3.5129

 eigenvalue-minimisations  :  8528
 total energy-change (2. order) :-0.2601365E+05  (-0.2527899E+05)
 number of electron     400.0000000 magnetization 
 augmentation part      400.0000000 magnetization 

 Free energy of the ion-electron system (eV)
  ---------------------------------------------------
  alpha Z        PSCENC =       370.05370877
  Ewald energy   TEWEN  =    -15548.77075954
  -Hartree energ DENC   =     -8105.55454996
  -exchange      EXHF   =         0.00000000
  -V(xc)+E(xc)   XCENC  =       254.40056066
  PAW double counting   =     20708.16285019   -20051.16882790
  entropy T*S    EENTRO =        -0.00004179
  eigenvalues    EBANDS =      6334.52201640
  atomic energy  EATOM  =     24680.42500649
  ---------------------------------------------------
  free energy    TOTEN  =      8642.06996332 eV

  energy without entropy =     8642.07000511  energy(sigma->0) =     8642.06998422
  exchange ACFDT corr.  =         0.00000000  see jH, gK, PRB 81, 115126


--------------------------------------------------------------------------------------------------------




----------------------------------------- Iteration    1(   3)  ---------------------------------------


    TRIAL :  cpu time    3.6002: real time    3.6031
    CORREC:  cpu time    0.0040: real time    0.0015
    --------------------------------------------
      LOOP:  cpu time    3.6042: real time    3.6228

 eigenvalue-minimisations  :  9024
 total energy-change (2. order) :-0.6849200E+04  (-0.6745024E+04)
 number of electron     400.0000000 magnetization 
 augmentation part      400.0000000 magnetization 

 Free energy of the ion-electron system (eV)
  ---------------------------------------------------
  alpha Z        PSCENC =       370.05370877
  Ewald energy   TEWEN  =    -15548.77075954
  -Hartree energ DENC   =     -8105.55454996
  -exchange      EXHF   =         0.00000000
  -V(xc)+E(xc)   XCENC  =       254.40056066
  PAW double counting   =     20708.16285019   -20051.16882790
  entropy T*S    EENTRO =        -0.00000009
  eigenvalues    EBANDS =      -514.67822498
  atomic energy  EATOM  =     24680.42500649
  ---------------------------------------------------
  free energy    TOTEN  =      1792.86976364 eV

  energy without entropy =     1792.86976373  energy(sigma->0) =     1792.86976368
  exchange ACFDT corr.  =         0.00000000  see jH, gK, PRB 81, 115126


--------------------------------------------------------------------------------------------------------




----------------------------------------- Iteration    1(   4)  ---------------------------------------


    TRIAL :  cpu time    3.9202: real time    3.9216
    CORREC:  cpu time    0.0000: real time    0.0007
    --------------------------------------------
      LOOP:  cpu time    3.9202: real time    3.9409

 eigenvalue-minimisations  : 10016
 total energy-change (2. order) :-0.1355416E+04  (-0.1300877E+04)
 number of electron     400.0000000 magnetization 
 augmentation part      400.0000000 magnetization 

 Free energy of the ion-electron system (eV)
  ---------------------------------------------------
  alpha Z        PSCENC =       370.05370877
  Ewald energy   TEWEN  =    -15548.77075954
  -Hartree energ DENC   =     -8105.55454996
  -exchange      EXHF   =         0.00000000
  -V(xc)+E(xc)   XCENC  =       254.40056066
  PAW double counting   =     20708.16285019   -20051.16882790
  entropy T*S    EENTRO =         0.00000000
  eigenvalues    EBANDS =     -1870.09417714
  atomic energy  EATOM  =     24680.42500649
  ---------------------------------------------------
  free energy    TOTEN  =       437.45381157 eV

  energy without entropy =      437.45381157  energy(sigma->0) =      437.45381157
  exchange ACFDT corr.  =         0.00000000  see jH, gK, PRB 81, 115126


--------------------------------------------------------------------------------------------------------




----------------------------------------- Iteration    1(   5)  ---------------------------------------


    TRIAL :  cpu time    3.8002: real time    3.8035
    CORREC:  cpu time    0.0040: real time    0.0018
    CHARGE:  cpu time    0.8601: real time    0.8613
    --------------------------------------------
      LOOP:  cpu time    4.6643: real time    4.6851

 eigenvalue-minimisations  :  9520
 total energy-change (2. order) :-0.1632021E+03  (-0.1605481E+03)
 number of electron     400.0000000 magnetization 
 augmentation part       12.9303358 magnetization 

 Free energy of the ion-electron system (eV)
  ---------------------------------------------------
  alpha Z        PSCENC =       370.05370877
  Ewald energy   TEWEN  =    -15548.77075954
  -Hartree energ DENC   =     -8105.55454996
  -exchange      EXHF   =         0.00000000
  -V(xc)+E(xc)   XCENC  =       254.40056066
  PAW double counting   =     20708.16285019   -20051.16882790
  entropy T*S    EENTRO =         0.00000000
  eigenvalues    EBANDS =     -2033.29631074
  atomic energy  EATOM  =     24680.42500649
  ---------------------------------------------------
  free energy    TOTEN  =       274.25167797 eV

  energy without entropy =      274.25167797  energy(sigma->0) =      274.25167797
  exchange ACFDT corr.  =         0.00000000  see jH, gK, PRB 81, 115126


--------------------------------------------------------------------------------------------------------




----------------------------------------- Iteration    1(   6)  ---------------------------------------


    POTLOK:  cpu time    0.2560: real time    0.2547
    SETDIJ:  cpu time    0.6400: real time    0.6387
    TRIAL :  cpu time  288.9341: real time  289.1383
    CORREC:  cpu time  289.3381: real time  289.5198
    CHARGE:  cpu time    0.8601: real time    0.8599
    --------------------------------------------
      LOOP:  cpu time  580.0282: real time  580.4326

 eigenvalue-minimisations  :     0
 total energy-change (2. order) :-0.7230809E+03  (-0.1875183E+02)
 number of electron     400.0000000 magnetization 
 augmentation part       13.3026408 magnetization 

 Free energy of the ion-electron system (eV)
  ---------------------------------------------------
  alpha Z        PSCENC =       370.05370877
  Ewald energy   TEWEN  =    -15548.77075954
  -Hartree energ DENC   =     -8169.27989776
  -exchange      EXHF   =       752.77135467
  -V(xc)+E(xc)   XCENC  =       273.18368310
  PAW double counting   =     55657.94843645   -54989.03550867
  entropy T*S    EENTRO =        -0.00000000
  eigenvalues    EBANDS =     -3476.12521951
  atomic energy  EATOM  =     24680.42500649
  ---------------------------------------------------
  free energy    TOTEN  =      -448.82919600 eV

  energy without entropy =     -448.82919600  energy(sigma->0) =     -448.82919600
  exchange ACFDT corr.  =         0.00000000  see jH, gK, PRB 81, 115126


--------------------------------------------------------------------------------------------------------




----------------------------------------- Iteration    1(   7)  ---------------------------------------


    POTLOK:  cpu time    0.2560: real time    0.2566
    SETDIJ:  cpu time    0.6240: real time    0.6248
    TRIAL :  cpu time  288.9181: real time  289.1206
    CORREC:  cpu time  289.4581: real time  289.6386
    CHARGE:  cpu time    0.8641: real time    0.8630
    --------------------------------------------
      LOOP:  cpu time  580.1243: real time  580.5428

 eigenvalue-minimisations  :     0
 total energy-change (2. order) :-0.1868606E+02  (-0.7703859E+01)
 number of electron     400.0000000 magnetization 
 augmentation part        9.8298264 magnetization 

 Free energy of the ion-electron system (eV)
  ---------------------------------------------------
  alpha Z        PSCENC =       370.05370877
  Ewald energy   TEWEN  =    -15548.77075954
  -Hartree energ DENC   =     -8446.25691557
  -exchange      EXHF   =       762.33088068
  -V(xc)+E(xc)   XCENC  =       279.89079900
  PAW double counting   =     49639.55531509   -48967.95939121
  entropy T*S    EENTRO =        -0.00000000
  eigenvalues    EBANDS =     -3236.78389875
  atomic energy  EATOM  =     24680.42500649
  ---------------------------------------------------
  free energy    TOTEN  =      -467.51525505 eV

  energy without entropy =     -467.51525505  energy(sigma->0) =     -467.51525505
  exchange ACFDT corr.  =         0.00000000  see jH, gK, PRB 81, 115126


--------------------------------------------------------------------------------------------------------




----------------------------------------- Iteration    1(   8)  ---------------------------------------


    POTLOK:  cpu time    0.2600: real time    0.2577
    SETDIJ:  cpu time    0.6080: real time    0.6096
    TRIAL :  cpu time  288.8941: real time  289.2396
    CORREC:  cpu time  289.3861: real time  289.5644
    CHARGE:  cpu time    0.8601: real time    0.8606
    --------------------------------------------
      LOOP:  cpu time  580.0082: real time  580.5807

 eigenvalue-minimisations  :     0
 total energy-change (2. order) :-0.7703506E+01  (-0.2776462E+01)
 number of electron     400.0000000 magnetization 
 augmentation part        9.5035887 magnetization 

 Free energy of the ion-electron system (eV)
  ---------------------------------------------------
  alpha Z        PSCENC =       370.05370877
  Ewald energy   TEWEN  =    -15548.77075954
  -Hartree energ DENC   =     -8371.99406740
  -exchange      EXHF   =       765.47224863
  -V(xc)+E(xc)   XCENC  =       278.05160343
  PAW double counting   =     43536.05903580   -42872.33601593
  entropy T*S    EENTRO =         0.00000000
  eigenvalues    EBANDS =     -3312.17952119
  atomic energy  EATOM  =     24680.42500649
  ---------------------------------------------------
  free energy    TOTEN  =      -475.21876095 eV

  energy without entropy =     -475.21876095  energy(sigma->0) =     -475.21876095
  exchange ACFDT corr.  =         0.00000000  see jH, gK, PRB 81, 115126


--------------------------------------------------------------------------------------------------------




----------------------------------------- Iteration    1(   9)  ---------------------------------------


    POTLOK:  cpu time    0.2560: real time    0.2557
    SETDIJ:  cpu time    0.6360: real time    0.6373
    TRIAL :  cpu time  289.2541: real time  289.4367
    CORREC:  cpu time  289.2741: real time  289.4557
    CHARGE:  cpu time    0.8601: real time    0.8612
    --------------------------------------------
      LOOP:  cpu time  580.2843: real time  580.6670

 eigenvalue-minimisations  :     0
 total energy-change (2. order) :-0.2776857E+01  (-0.8781040E+00)
 number of electron     400.0000000 magnetization 
 augmentation part        9.5991924 magnetization 

 Free energy of the ion-electron system (eV)
  ---------------------------------------------------
  alpha Z        PSCENC =       370.05370877
  Ewald energy   TEWEN  =    -15548.77075954
  -Hartree energ DENC   =     -8418.02980763
  -exchange      EXHF   =       768.56562353
  -V(xc)+E(xc)   XCENC  =       279.55262169
  PAW double counting   =     38240.79003082   -37578.21374487
  entropy T*S    EENTRO =         0.00000000
  eigenvalues    EBANDS =     -3272.36829767
  atomic energy  EATOM  =     24680.42500649
  ---------------------------------------------------
  free energy    TOTEN  =      -477.99561840 eV

  energy without entropy =     -477.99561840  energy(sigma->0) =     -477.99561840
  exchange ACFDT corr.  =         0.00000000  see jH, gK, PRB 81, 115126


--------------------------------------------------------------------------------------------------------




----------------------------------------- Iteration    1(  10)  ---------------------------------------


    POTLOK:  cpu time    0.2560: real time    0.2576
    SETDIJ:  cpu time    0.6080: real time    0.6065
    TRIAL :  cpu time  289.2061: real time  289.3891
    CORREC:  cpu time  289.2861: real time  289.4657
    CHARGE:  cpu time    0.8601: real time    0.8615
    --------------------------------------------
      LOOP:  cpu time  580.2203: real time  580.6268

 eigenvalue-minimisations  :     0
 total energy-change (2. order) :-0.8772195E+00  (-0.2244219E+00)
 number of electron     400.0000000 magnetization 
 augmentation part        9.2407730 magnetization 

 Free energy of the ion-electron system (eV)
  ---------------------------------------------------
  alpha Z        PSCENC =       370.05370877
  Ewald energy   TEWEN  =    -15548.77075954
  -Hartree energ DENC   =     -8421.63415681
  -exchange      EXHF   =       768.08045839
  -V(xc)+E(xc)   XCENC  =       278.91177361
  PAW double counting   =     35731.90899444   -35067.97703710
  entropy T*S    EENTRO =         0.00000000
  eigenvalues    EBANDS =     -3269.87082618
  atomic energy  EATOM  =     24680.42500649
  ---------------------------------------------------
  free energy    TOTEN  =      -478.87283792 eV

  energy without entropy =     -478.87283792  energy(sigma->0) =     -478.87283792
  exchange ACFDT corr.  =         0.00000000  see jH, gK, PRB 81, 115126


--------------------------------------------------------------------------------------------------------




----------------------------------------- Iteration    1(  11)  ---------------------------------------


    POTLOK:  cpu time    0.2560: real time    0.2569
    SETDIJ:  cpu time    0.6240: real time    0.6255
    TRIAL :  cpu time  289.0261: real time  289.2418
    CORREC:  cpu time  289.3501: real time  289.5313
    CHARGE:  cpu time    0.8601: real time    0.8614
    --------------------------------------------
      LOOP:  cpu time  580.1203: real time  580.5482

 eigenvalue-minimisations  :     0
 total energy-change (2. order) :-0.2244058E+00  (-0.1134093E+00)
 number of electron     400.0000000 magnetization 
 augmentation part        9.3384994 magnetization 

 Free energy of the ion-electron system (eV)
  ---------------------------------------------------
  alpha Z        PSCENC =       370.05370877
  Ewald energy   TEWEN  =    -15548.77075954
  -Hartree energ DENC   =     -8393.49636632
  -exchange      EXHF   =       767.48203759
  -V(xc)+E(xc)   XCENC  =       277.96027174
  PAW double counting   =     35119.91974978   -34456.31961719
  entropy T*S    EENTRO =        -0.00000000
  eigenvalues    EBANDS =     -3296.35127504
  atomic energy  EATOM  =     24680.42500649
  ---------------------------------------------------
  free energy    TOTEN  =      -479.09724372 eV

  energy without entropy =     -479.09724372  energy(sigma->0) =     -479.09724372
  exchange ACFDT corr.  =         0.00000000  see jH, gK, PRB 81, 115126


--------------------------------------------------------------------------------------------------------




----------------------------------------- Iteration    1(  12)  ---------------------------------------


    POTLOK:  cpu time    0.2600: real time    0.2589
    SETDIJ:  cpu time    0.6080: real time    0.6084
    TRIAL :  cpu time  289.1821: real time  289.3879
    CORREC:  cpu time  289.1581: real time  289.3357
    CHARGE:  cpu time    0.8601: real time    0.8604
    --------------------------------------------
      LOOP:  cpu time  580.0723: real time  580.5002

 eigenvalue-minimisations  :     0
 total energy-change (2. order) :-0.1132908E+00  (-0.3519139E-01)
 number of electron     400.0000000 magnetization 
 augmentation part        9.3505563 magnetization 

 Free energy of the ion-electron system (eV)
  ---------------------------------------------------
  alpha Z        PSCENC =       370.05370877
  Ewald energy   TEWEN  =    -15548.77075954
  -Hartree energ DENC   =     -8411.50959095
  -exchange      EXHF   =       768.01903066
  -V(xc)+E(xc)   XCENC  =       278.42783647
  PAW double counting   =     35004.29149890   -34340.20140981
  entropy T*S    EENTRO =        -0.00000000
  eigenvalues    EBANDS =     -3279.94585548
  atomic energy  EATOM  =     24680.42500649
  ---------------------------------------------------
  free energy    TOTEN  =      -479.21053449 eV

  energy without entropy =     -479.21053449  energy(sigma->0) =     -479.21053449
  exchange ACFDT corr.  =         0.00000000  see jH, gK, PRB 81, 115126


--------------------------------------------------------------------------------------------------------




----------------------------------------- Iteration    1(  13)  ---------------------------------------


    POTLOK:  cpu time    0.2600: real time    0.2568
    SETDIJ:  cpu time    0.6120: real time    0.6136
    TRIAL :  cpu time  288.9781: real time  289.1779
    CORREC:  cpu time  289.4341: real time  289.6175
    CHARGE:  cpu time    0.8641: real time    0.8642
    --------------------------------------------
      LOOP:  cpu time  580.1483: real time  580.5728

 eigenvalue-minimisations  :     0
 total energy-change (2. order) :-0.3512773E-01  (-0.1011827E-01)
 number of electron     400.0000000 magnetization 
 augmentation part        9.3273776 magnetization 

 Free energy of the ion-electron system (eV)
  ---------------------------------------------------
  alpha Z        PSCENC =       370.05370877
  Ewald energy   TEWEN  =    -15548.77075954
  -Hartree energ DENC   =     -8411.98382797
  -exchange      EXHF   =       768.12019939
  -V(xc)+E(xc)   XCENC  =       278.50257054
  PAW double counting   =     35203.86255530   -34539.76878352
  entropy T*S    EENTRO =         0.00000000
  eigenvalues    EBANDS =     -3279.68633170
  atomic energy  EATOM  =     24680.42500649
  ---------------------------------------------------
  free energy    TOTEN  =      -479.24566223 eV

  energy without entropy =     -479.24566223  energy(sigma->0) =     -479.24566223
  exchange ACFDT corr.  =         0.00000000  see jH, gK, PRB 81, 115126


--------------------------------------------------------------------------------------------------------




----------------------------------------- Iteration    1(  14)  ---------------------------------------


    POTLOK:  cpu time    0.2560: real time    0.2559
    SETDIJ:  cpu time    0.6360: real time    0.6379
    TRIAL :  cpu time  289.0741: real time  289.2687
    CORREC:  cpu time  289.4661: real time  289.6454
    CHARGE:  cpu time    0.8601: real time    0.8609
    --------------------------------------------
      LOOP:  cpu time  580.2963: real time  580.6888

 eigenvalue-minimisations  :     0
 total energy-change (2. order) :-0.1011360E-01  (-0.2875948E-02)
 number of electron     400.0000000 magnetization 
 augmentation part        9.3600544 magnetization 

 Free energy of the ion-electron system (eV)
  ---------------------------------------------------
  alpha Z        PSCENC =       370.05370877
  Ewald energy   TEWEN  =    -15548.77075954
  -Hartree energ DENC   =     -8408.97852322
  -exchange      EXHF   =       768.04645785
[...]


 FORCES acting on ions:
    Electron-Ion                     Ewald-Force                    Non-Local-Force
 -----------------------------------------------------------------------------------------------
   0.850E+02 0.561E-01 0.442E+02   -.917E+02 -.642E-01 -.484E+02   0.638E+01 0.735E-02 0.376E+01
   0.838E+02 0.524E-01 0.286E+02   -.913E+02 -.615E-01 -.310E+02   0.701E+01 0.835E-02 0.222E+01
   0.838E+02 0.524E-01 0.286E+02   -.913E+02 -.615E-01 -.310E+02   0.701E+01 0.835E-02 0.222E+01
   0.850E+02 0.561E-01 0.442E+02   -.917E+02 -.642E-01 -.484E+02   0.638E+01 0.735E-02 0.376E+01
   0.850E+02 0.561E-01 0.442E+02   -.917E+02 -.642E-01 -.484E+02   0.638E+01 0.735E-02 0.376E+01
   0.838E+02 0.524E-01 0.286E+02   -.913E+02 -.615E-01 -.310E+02   0.701E+01 0.835E-02 0.222E+01
   0.838E+02 0.524E-01 0.286E+02   -.913E+02 -.615E-01 -.310E+02   0.701E+01 0.835E-02 0.222E+01
   0.850E+02 0.561E-01 0.442E+02   -.917E+02 -.642E-01 -.484E+02   0.638E+01 0.735E-02 0.376E+01
   -.351E+02 -.639E-01 -.205E+02   0.342E+02 0.587E-01 0.196E+02   0.112E+01 0.467E-02 0.115E+01
   -.390E+02 -.118E+00 -.131E+02   0.378E+02 0.115E+00 0.132E+02   0.155E+01 0.206E-02 0.938E-01
   -.390E+02 -.118E+00 -.131E+02   0.378E+02 0.115E+00 0.132E+02   0.155E+01 0.206E-02 0.938E-01
   -.351E+02 -.639E-01 -.205E+02   0.342E+02 0.587E-01 0.196E+02   0.112E+01 0.467E-02 0.115E+01
   -.351E+02 -.639E-01 -.205E+02   0.342E+02 0.587E-01 0.196E+02   0.112E+01 0.467E-02 0.115E+01
   -.390E+02 -.118E+00 -.131E+02   0.378E+02 0.115E+00 0.132E+02   0.155E+01 0.206E-02 0.938E-01
   -.390E+02 -.118E+00 -.131E+02   0.378E+02 0.115E+00 0.132E+02   0.155E+01 0.206E-02 0.938E-01
   -.351E+02 -.639E-01 -.205E+02   0.342E+02 0.587E-01 0.196E+02   0.112E+01 0.467E-02 0.115E+01
   0.115E+01 0.611E-01 0.511E+02   -.300E+00 -.681E-01 -.562E+02   -.919E+00 0.740E-02 0.549E+01
   0.930E+01 0.324E-01 0.514E+02   -.958E+01 -.360E-01 -.566E+02   0.315E+00 0.369E-02 0.555E+01
   0.930E+01 0.324E-01 0.514E+02   -.958E+01 -.360E-01 -.566E+02   0.315E+00 0.369E-02 0.555E+01
   0.115E+01 0.611E-01 0.511E+02   -.300E+00 -.681E-01 -.562E+02   -.919E+00 0.740E-02 0.549E+01
   0.115E+01 0.611E-01 0.511E+02   -.300E+00 -.681E-01 -.562E+02   -.919E+00 0.740E-02 0.549E+01
   0.930E+01 0.324E-01 0.514E+02   -.958E+01 -.360E-01 -.566E+02   0.315E+00 0.369E-02 0.555E+01
   0.930E+01 0.324E-01 0.514E+02   -.958E+01 -.360E-01 -.566E+02   0.315E+00 0.369E-02 0.555E+01
   0.115E+01 0.611E-01 0.511E+02   -.300E+00 -.681E-01 -.562E+02   -.919E+00 0.740E-02 0.549E+01
   0.329E+02 -.393E+02 -.721E+01   -.357E+02 0.437E+02 0.847E+01   0.298E+01 -.456E+01 -.131E+01
   0.277E+02 -.393E+02 -.131E+02   -.302E+02 0.437E+02 0.150E+02   0.266E+01 -.454E+01 -.192E+01
   0.277E+02 -.393E+02 -.131E+02   -.302E+02 0.437E+02 0.150E+02   0.266E+01 -.454E+01 -.192E+01
   0.329E+02 -.393E+02 -.721E+01   -.357E+02 0.437E+02 0.847E+01   0.298E+01 -.456E+01 -.131E+01
   0.329E+02 -.393E+02 -.721E+01   -.357E+02 0.437E+02 0.847E+01   0.298E+01 -.456E+01 -.131E+01
   0.277E+02 -.393E+02 -.131E+02   -.302E+02 0.437E+02 0.150E+02   0.266E+01 -.454E+01 -.192E+01
   0.277E+02 -.393E+02 -.131E+02   -.302E+02 0.437E+02 0.150E+02   0.266E+01 -.454E+01 -.192E+01
   0.329E+02 -.393E+02 -.721E+01   -.357E+02 0.437E+02 0.847E+01   0.298E+01 -.456E+01 -.131E+01
   0.329E+02 0.393E+02 -.731E+01   -.357E+02 -.437E+02 0.859E+01   0.298E+01 0.456E+01 -.132E+01
   0.276E+02 0.394E+02 -.132E+02   -.301E+02 -.438E+02 0.150E+02   0.265E+01 0.455E+01 -.193E+01
   0.276E+02 0.394E+02 -.132E+02   -.301E+02 -.438E+02 0.150E+02   0.265E+01 0.455E+01 -.193E+01
   0.329E+02 0.393E+02 -.731E+01   -.357E+02 -.437E+02 0.859E+01   0.298E+01 0.456E+01 -.132E+01
   0.329E+02 0.393E+02 -.731E+01   -.357E+02 -.437E+02 0.859E+01   0.298E+01 0.456E+01 -.132E+01
   0.276E+02 0.394E+02 -.132E+02   -.301E+02 -.438E+02 0.150E+02   0.265E+01 0.455E+01 -.193E+01
   0.276E+02 0.394E+02 -.132E+02   -.301E+02 -.438E+02 0.150E+02   0.265E+01 0.455E+01 -.193E+01
   0.329E+02 0.393E+02 -.731E+01   -.357E+02 -.437E+02 0.859E+01   0.298E+01 0.456E+01 -.132E+01
   -.353E+02 -.479E+02 0.139E+02   0.387E+02 0.530E+02 -.153E+02   -.368E+01 -.543E+01 0.145E+01
   -.315E+02 -.488E+02 0.207E+02   0.346E+02 0.540E+02 -.228E+02   -.335E+01 -.543E+01 0.225E+01
   -.315E+02 -.488E+02 0.207E+02   0.346E+02 0.540E+02 -.228E+02   -.335E+01 -.543E+01 0.225E+01
   -.353E+02 -.479E+02 0.139E+02   0.387E+02 0.530E+02 -.153E+02   -.368E+01 -.543E+01 0.145E+01
   -.353E+02 -.479E+02 0.139E+02   0.387E+02 0.530E+02 -.153E+02   -.368E+01 -.543E+01 0.145E+01
   -.315E+02 -.488E+02 0.207E+02   0.346E+02 0.540E+02 -.228E+02   -.335E+01 -.543E+01 0.225E+01
   -.315E+02 -.488E+02 0.207E+02   0.346E+02 0.540E+02 -.228E+02   -.335E+01 -.543E+01 0.225E+01
   -.353E+02 -.479E+02 0.139E+02   0.387E+02 0.530E+02 -.153E+02   -.368E+01 -.543E+01 0.145E+01
   -.353E+02 0.479E+02 0.138E+02   0.387E+02 -.530E+02 -.151E+02   -.368E+01 0.543E+01 0.143E+01
   -.316E+02 0.488E+02 0.206E+02   0.347E+02 -.539E+02 -.227E+02   -.335E+01 0.542E+01 0.224E+01
   -.316E+02 0.488E+02 0.206E+02   0.347E+02 -.539E+02 -.227E+02   -.335E+01 0.542E+01 0.224E+01
   -.353E+02 0.479E+02 0.138E+02   0.387E+02 -.530E+02 -.151E+02   -.368E+01 0.543E+01 0.143E+01
   -.353E+02 0.479E+02 0.138E+02   0.387E+02 -.530E+02 -.151E+02   -.368E+01 0.543E+01 0.143E+01
   -.316E+02 0.488E+02 0.206E+02   0.347E+02 -.539E+02 -.227E+02   -.335E+01 0.542E+01 0.224E+01
   -.316E+02 0.488E+02 0.206E+02   0.347E+02 -.539E+02 -.227E+02   -.335E+01 0.542E+01 0.224E+01
   -.353E+02 0.479E+02 0.138E+02   0.387E+02 -.530E+02 -.151E+02   -.368E+01 0.543E+01 0.143E+01
   0.107E+02 -.907E-01 -.650E+02   -.115E+02 0.101E+00 0.713E+02   0.832E+00 -.106E-01 -.686E+01
   -.362E+01 -.512E-01 -.609E+02   0.427E+01 0.553E-01 0.669E+02   -.794E+00 -.405E-02 -.656E+01
   -.362E+01 -.512E-01 -.609E+02   0.427E+01 0.553E-01 0.669E+02   -.794E+00 -.405E-02 -.656E+01
   0.107E+02 -.907E-01 -.650E+02   -.115E+02 0.101E+00 0.713E+02   0.832E+00 -.106E-01 -.686E+01
   0.107E+02 -.907E-01 -.650E+02   -.115E+02 0.101E+00 0.713E+02   0.832E+00 -.106E-01 -.686E+01
   -.362E+01 -.512E-01 -.609E+02   0.427E+01 0.553E-01 0.669E+02   -.794E+00 -.405E-02 -.656E+01
   -.362E+01 -.512E-01 -.609E+02   0.427E+01 0.553E-01 0.669E+02   -.794E+00 -.405E-02 -.656E+01
   0.107E+02 -.907E-01 -.650E+02   -.115E+02 0.101E+00 0.713E+02   0.832E+00 -.106E-01 -.686E+01
   -.309E+02 -.921E+01 -.117E+02   0.296E+02 0.929E+01 0.114E+02   0.123E+01 -.743E-01 0.322E+00
   -.309E+02 0.934E+01 -.117E+02   0.295E+02 -.944E+01 0.114E+02   0.123E+01 0.851E-01 0.321E+00
   -.309E+02 0.934E+01 -.117E+02   0.295E+02 -.944E+01 0.114E+02   0.123E+01 0.851E-01 0.321E+00
   -.309E+02 -.921E+01 -.117E+02   0.296E+02 0.929E+01 0.114E+02   0.123E+01 -.743E-01 0.322E+00
   -.309E+02 -.921E+01 -.117E+02   0.296E+02 0.929E+01 0.114E+02   0.123E+01 -.743E-01 0.322E+00
   -.309E+02 0.934E+01 -.117E+02   0.295E+02 -.944E+01 0.114E+02   0.123E+01 0.851E-01 0.321E+00
   -.309E+02 0.934E+01 -.117E+02   0.295E+02 -.944E+01 0.114E+02   0.123E+01 0.851E-01 0.321E+00
   -.309E+02 -.921E+01 -.117E+02   0.296E+02 0.929E+01 0.114E+02   0.123E+01 -.743E-01 0.322E+00
   -.173E+02 -.482E+01 0.560E+01   0.174E+02 0.484E+01 -.553E+01   -.978E-01 -.944E-02 -.772E-01
   -.172E+02 0.490E+01 0.561E+01   0.174E+02 -.492E+01 -.554E+01   -.968E-01 0.106E-01 -.769E-01
   -.172E+02 0.490E+01 0.561E+01   0.174E+02 -.492E+01 -.554E+01   -.968E-01 0.106E-01 -.769E-01
   -.173E+02 -.482E+01 0.560E+01   0.174E+02 0.484E+01 -.553E+01   -.978E-01 -.944E-02 -.772E-01
   -.173E+02 -.482E+01 0.560E+01   0.174E+02 0.484E+01 -.553E+01   -.978E-01 -.944E-02 -.772E-01
   -.172E+02 0.490E+01 0.561E+01   0.174E+02 -.492E+01 -.554E+01   -.968E-01 0.106E-01 -.769E-01
   -.172E+02 0.490E+01 0.561E+01   0.174E+02 -.492E+01 -.554E+01   -.968E-01 0.106E-01 -.769E-01
   -.173E+02 -.482E+01 0.560E+01   0.174E+02 0.484E+01 -.553E+01   -.978E-01 -.944E-02 -.772E-01
   -.290E+02 -.469E-01 -.161E+02   0.291E+02 0.482E-01 0.166E+02   -.246E-01 -.105E-02 -.521E+00
   0.814E+00 -.610E-01 -.162E+02   -.106E+01 0.624E-01 0.169E+02   0.262E+00 -.112E-02 -.703E+00
   0.814E+00 -.610E-01 -.162E+02   -.106E+01 0.624E-01 0.169E+02   0.262E+00 -.112E-02 -.703E+00
   -.290E+02 -.469E-01 -.161E+02   0.291E+02 0.482E-01 0.166E+02   -.246E-01 -.105E-02 -.521E+00
   -.290E+02 -.469E-01 -.161E+02   0.291E+02 0.482E-01 0.166E+02   -.246E-01 -.105E-02 -.521E+00
   0.814E+00 -.610E-01 -.162E+02   -.106E+01 0.624E-01 0.169E+02   0.262E+00 -.112E-02 -.703E+00
   0.814E+00 -.610E-01 -.162E+02   -.106E+01 0.624E-01 0.169E+02   0.262E+00 -.112E-02 -.703E+00
   -.290E+02 -.469E-01 -.161E+02   0.291E+02 0.482E-01 0.166E+02   -.246E-01 -.105E-02 -.521E+00
   0.493E+01 0.477E+01 -.284E+01   -.438E+01 -.503E+01 0.245E+01   -.562E+00 0.241E+00 0.418E+00
   0.492E+01 -.475E+01 -.282E+01   -.438E+01 0.501E+01 0.242E+01   -.562E+00 -.243E+00 0.419E+00
   0.492E+01 -.475E+01 -.282E+01   -.438E+01 0.501E+01 0.242E+01   -.562E+00 -.243E+00 0.419E+00
   0.493E+01 0.477E+01 -.284E+01   -.438E+01 -.503E+01 0.245E+01   -.562E+00 0.241E+00 0.418E+00
   0.493E+01 0.477E+01 -.284E+01   -.438E+01 -.503E+01 0.245E+01   -.562E+00 0.241E+00 0.418E+00
   0.492E+01 -.475E+01 -.282E+01   -.438E+01 0.501E+01 0.242E+01   -.562E+00 -.243E+00 0.419E+00
   0.492E+01 -.475E+01 -.282E+01   -.438E+01 0.501E+01 0.242E+01   -.562E+00 -.243E+00 0.419E+00
   0.493E+01 0.477E+01 -.284E+01   -.438E+01 -.503E+01 0.245E+01   -.562E+00 0.241E+00 0.418E+00
 -----------------------------------------------------------------------------------------------
   -.601E+02 -.118E+00 -.247E+02   0.172E-12 -.214E-12 0.334E-12   0.563E+02 0.110E+00 0.233E+02
 
 
 POSITION                                       TOTAL-FORCE (eV/Angst)
 -----------------------------------------------------------------------------------
      2.59828      3.11402      2.80394        -0.086342     -0.000421     -0.184059
      8.70969      3.11421      3.15539        -0.128244     -0.000331     -0.159644
      2.42187      9.34202      3.08592        -0.128244     -0.000331     -0.159644
      8.88730      9.34375      2.87267        -0.086342     -0.000421     -0.184059
      2.66798      3.11407      9.17765        -0.086342     -0.000421     -0.184059
      8.77940      3.11426      9.52910        -0.128244     -0.000331     -0.159644
      2.49157      9.34207      9.45963        -0.128244     -0.000331     -0.159644
      8.95700      9.34380      9.24638        -0.086342     -0.000421     -0.184059
      3.89347      3.11532      3.54153         0.342957     -0.000153      0.279623
     10.13214      3.11571      3.59400         0.427904     -0.000361      0.219225
      3.84432      9.34352      3.52453         0.427904     -0.000361      0.219225
     10.18248      9.34505      3.61026         0.342957     -0.000153      0.279623
      3.96317      3.11537      9.91524         0.342957     -0.000153      0.279623
     10.20185      3.11575      9.96771         0.427904     -0.000361      0.219225
      3.91403      9.34357      9.89824         0.427904     -0.000361      0.219225
     10.25219      9.34510      9.98397         0.342957     -0.000153      0.279623
      2.80986      3.11258      1.71842        -0.107053      0.000776      0.612836
      8.67739      3.11350      2.04992         0.044545      0.000303      0.610135
      2.38957      9.34131      1.98044         0.044545      0.000303      0.610135
      9.09888      9.34231      1.78714        -0.107053      0.000776      0.612836
      2.87957      3.11263      8.09213        -0.107053      0.000776      0.612836
      8.74709      3.11354      8.42363         0.044545      0.000303      0.610135
      2.45927      9.34136      8.35415         0.044545      0.000303      0.610135
      9.16858      9.34235      8.16085        -0.107053      0.000776      0.612836
      2.03120      4.01743      3.07968         0.281325     -0.362216     -0.105807
      8.21140      4.01560      3.54592         0.259251     -0.361338     -0.158229
      1.92358     10.24341      3.47645         0.259251     -0.361338     -0.158229
      8.32022     10.24715      3.14840         0.281325     -0.362216     -0.105807
      2.10091      4.01747      9.45339         0.281325     -0.362216     -0.105807
      8.28110      4.01564      9.91963         0.259251     -0.361338     -0.158229
      1.99328     10.24345      9.85016         0.259251     -0.361338     -0.158229
      8.38992     10.24720      9.52211         0.281325     -0.362216     -0.105807
      2.03180      2.21103      3.08219         0.280347      0.362016     -0.107183
      8.21313      2.21240      3.54710         0.257836      0.361580     -0.159014
      1.92531      8.44021      3.47763         0.257836      0.361580     -0.159014
      8.32082      8.44075      3.15092         0.280347      0.362016     -0.107183
      2.10151      2.21107      9.45590         0.280347      0.362016     -0.107183
      8.28283      2.21244      9.92081         0.257836      0.361580     -0.159014
      1.99501      8.44025      9.85134         0.257836      0.361580     -0.159014
      8.39052      8.44080      9.52463         0.280347      0.362016     -0.107183
      4.46781      3.96360      3.31283        -0.415759     -0.551238      0.133149
     10.64815      3.95859      3.24502        -0.386569     -0.539842      0.222129
      4.36033     10.18641      3.17555        -0.386569     -0.539842      0.222129
     10.75683     10.19333      3.38155        -0.415759     -0.551238      0.133149
      4.53752      3.96365      9.68654        -0.415759     -0.551238      0.133149
     10.71785      3.95864      9.61873        -0.386569     -0.539842      0.222129
      4.43003     10.18645      9.54926        -0.386569     -0.539842      0.222129
     10.82653     10.19338      9.75526        -0.415759     -0.551238      0.133149
      4.46801      2.26643      3.31535        -0.416680      0.552453      0.131042
     10.64944      2.27306      3.24615        -0.388242      0.540547      0.221020
      4.36162      8.50088      3.17667        -0.388242      0.540547      0.221020
     10.75703      8.49616      3.38407        -0.416680      0.552453      0.131042
      4.53771      2.26647      9.68906        -0.416680      0.552453      0.131042
     10.71915      2.27311      9.61986        -0.388242      0.540547      0.221020
      4.43133      8.50092      9.55038        -0.388242      0.540547      0.221020
     10.82673      8.49620      9.75778        -0.416680      0.552453      0.131042
      3.76171      3.11692      4.57777         0.045116     -0.001033     -0.791340
     10.25230      3.11636      4.64096        -0.176953     -0.000150     -0.811655
      3.96448      9.34418      4.57148        -0.176953     -0.000150     -0.811655
     10.05072      9.34664      4.64649         0.045116     -0.001033     -0.791340
      3.83141      3.11696     10.95148         0.045116     -0.001033     -0.791340
     10.32201      3.11641     11.01467        -0.176953     -0.000150     -0.811655
      4.03419      9.34422     10.94519        -0.176953     -0.000150     -0.811655
     10.12043      9.34669     11.02020         0.045116     -0.001033     -0.791340
      6.01065      6.24414      6.29598         0.014357      0.005649      0.006760
     12.29891      6.21600      6.36512         0.014298     -0.005978      0.006764
      6.01108     12.44381      6.29565         0.014298     -0.005978      0.006764
     12.29847      0.01633      6.36546         0.014357      0.005649      0.006760
      6.08035      6.24418     12.66969         0.014357      0.005649      0.006760
     12.36861      6.21605     12.73883         0.014298     -0.005978      0.006764
      6.08079     12.44386     12.66936         0.014298     -0.005978      0.006764
     12.36817      0.01637     12.73917         0.014357      0.005649      0.006760
      5.75317      6.23730      3.09087         0.048887      0.006329     -0.014387
     12.04115      6.22276      3.16006         0.048826     -0.006759     -0.014390
      5.75333     12.45057      3.09058         0.048826     -0.006759     -0.014390
     12.04100      0.00948      3.16034         0.048887      0.006329     -0.014387
      5.82288      6.23734      9.46458         0.048887      0.006329     -0.014387
     12.11086      6.22281      9.53377         0.048826     -0.006759     -0.014390
      5.82304     12.45062      9.46429         0.048826     -0.006759     -0.014390
     12.11070      0.00953      9.53405         0.048887      0.006329     -0.014387
      5.93924      3.11497      0.16201         0.078156      0.000214     -0.016913
     11.66306      3.11596      0.33266         0.035932      0.000222     -0.009112
      5.37524      9.34377      0.26318         0.035932      0.000222     -0.009112
     12.22826      9.34470      0.23073         0.078156      0.000214     -0.016913
      6.00895      3.11502      6.53572         0.078156      0.000214     -0.016913
     11.73276      3.11600      6.70637         0.035932      0.000222     -0.009112
      5.44494      9.34381      6.63689         0.035932      0.000222     -0.009112
     12.29796      9.34474      6.60445         0.078156      0.000214     -0.016913
      2.78369      5.89475      5.90914        -0.036953     -0.002725      0.044584
      9.07204      6.56460      5.97820        -0.036942      0.002454      0.044465
      2.78302      0.33487      5.90947        -0.036942      0.002454      0.044465
      9.07271     12.12447      5.97786        -0.036953     -0.002725      0.044584
      2.85339      5.89479     12.28285        -0.036953     -0.002725      0.044584
      9.14174      6.56464     12.35191        -0.036942      0.002454      0.044465
      2.85272      0.33491     12.28318        -0.036942      0.002454      0.044465
      9.14241     12.12452     12.35158        -0.036953     -0.002725      0.044584
 -----------------------------------------------------------------------------------
    total drift:                                0.000051      0.000436     -0.006412


--------------------------------------------------------------------------------------------------------



  FREE ENERGIE OF THE ION-ELECTRON SYSTEM (eV)
  ---------------------------------------------------
  free  energy   TOTEN  =      -479.26120509 eV

  energy  without entropy=     -479.26120509  energy(sigma->0) =     -479.26120509
 


--------------------------------------------------------------------------------------------------------


    POTLOK:  cpu time    0.9601: real time    0.9594


--------------------------------------------------------------------------------------------------------


     LOOP+:  cpu time17841.8710: real time17856.0803
    4ORBIT:  cpu time    0.0000: real time    0.0000

 total amount of memory used by VASP on root node   247471. kBytes
========================================================================

   base      :      30000. kBytes
   nonl-proj :      82891. kBytes
   fftplans  :      15020. kBytes
   grid      :      12652. kBytes
   one-center:        124. kBytes
   HF        :        259. kBytes
   nonlr-proj:      28939. kBytes
   wavefun   :      77586. kBytes
 
  
  
 General timing and accounting informations for this job:
 ========================================================
  
                  Total CPU time used (sec):    17891.525
                            User time (sec):    17879.353
                          System time (sec):       12.173
                         Elapsed time (sec):    17920.324
  
                   Maximum memory used (kb):      383876.
                   Average memory used (kb):           0.
  
                          Minor page faults:       149612
                          Major page faults:            0
                 Voluntary context switches:          950
