  96  96   0   0
  0.2080188E+02  0.1257760E-08  0.1245754E-08  0.1274818E-08  0.5000000E-15
  1.000000000000000E-004
  CAR 
 MAPbI3-Cubic                            
     10.65167708    -19.70784860  301      1.59441859      1.00000000
    -19.708  0.0000E+00  0.0000E+00
    -19.607  0.0000E+00  0.0000E+00
    -19.505  0.0000E+00  0.0000E+00
    -19.404  0.0000E+00  0.0000E+00
    -19.303  0.0000E+00  0.0000E+00
    -19.202  0.0000E+00  0.0000E+00
    -19.101  0.0000E+00  0.0000E+00
    -18.999  0.0000E+00  0.0000E+00
    -18.898  0.0000E+00  0.0000E+00
    -18.797  0.0000E+00  0.0000E+00
    -18.696  0.0000E+00  0.0000E+00
    -18.595  0.0000E+00  0.0000E+00
    -18.493  0.0000E+00  0.0000E+00
    -18.392  0.0000E+00  0.0000E+00
    -18.291  0.0000E+00  0.1600E+02
    -18.190  0.0000E+00  0.1600E+02
    -18.089  0.0000E+00  0.1600E+02
    -17.987  0.0000E+00  0.1600E+02
    -17.886  0.0000E+00  0.1600E+02
    -17.785  0.0000E+00  0.1600E+02
    -17.684  0.0000E+00  0.1600E+02
    -17.583  0.0000E+00  0.1600E+02
    -17.481  0.0000E+00  0.1600E+02
    -17.380  0.0000E+00  0.1600E+02
    -17.279  0.0000E+00  0.1600E+02
    -17.178  0.0000E+00  0.1600E+02
    -17.077  0.0000E+00  0.1600E+02
    -16.975  0.0000E+00  0.1600E+02
    -16.874  0.0000E+00  0.1600E+02
    -16.773  0.0000E+00  0.1600E+02
    -16.672  0.0000E+00  0.1600E+02
    -16.571  0.0000E+00  0.1600E+02
    -16.469  0.0000E+00  0.1600E+02
    -16.368  0.0000E+00  0.4800E+02
    -16.267  0.0000E+00  0.4800E+02
    -16.166  0.0000E+00  0.4800E+02
    -16.065  0.0000E+00  0.4800E+02
    -15.964  0.0000E+00  0.4800E+02
    -15.862  0.0000E+00  0.4800E+02
    -15.761  0.0000E+00  0.4800E+02
    -15.660  0.0000E+00  0.4800E+02
    -15.559  0.0000E+00  0.4800E+02
    -15.458  0.0000E+00  0.4800E+02
    -15.356  0.0000E+00  0.4800E+02
    -15.255  0.0000E+00  0.4800E+02
    -15.154  0.0000E+00  0.4800E+02
    -15.053  0.0000E+00  0.4800E+02
    -14.952  0.0000E+00  0.4800E+02
    -14.850  0.0000E+00  0.4800E+02
    -14.749  0.0000E+00  0.4800E+02
    -14.648  0.0000E+00  0.4800E+02
    -14.547  0.0000E+00  0.4800E+02
    -14.446  0.0000E+00  0.4800E+02
    -14.344  0.0000E+00  0.4800E+02
    -14.243  0.0000E+00  0.4800E+02
    -14.142  0.0000E+00  0.4800E+02
    -14.041  0.0000E+00  0.4800E+02
    -13.940  0.0000E+00  0.4800E+02
    -13.838  0.7320E+01  0.8000E+02
    -13.737  0.0000E+00  0.9600E+02
    -13.636  0.0000E+00  0.9600E+02
    -13.535  0.0000E+00  0.9600E+02
    -13.434  0.0000E+00  0.9600E+02
    -13.332  0.0000E+00  0.9600E+02
    -13.231  0.0000E+00  0.9600E+02
    -13.130  0.0000E+00  0.9600E+02
    -13.029  0.0000E+00  0.9600E+02
    -12.928  0.0000E+00  0.9600E+02
    -12.826  0.0000E+00  0.9600E+02
    -12.725  0.0000E+00  0.9600E+02
    -12.624  0.0000E+00  0.9600E+02
    -12.523  0.0000E+00  0.9600E+02
    -12.422  0.0000E+00  0.9600E+02
    -12.320  0.0000E+00  0.9600E+02
    -12.219  0.0000E+00  0.9600E+02
    -12.118  0.0000E+00  0.9600E+02
    -12.017  0.0000E+00  0.9600E+02
    -11.916  0.0000E+00  0.9600E+02
    -11.814  0.0000E+00  0.9600E+02
    -11.713  0.0000E+00  0.9600E+02
    -11.612  0.0000E+00  0.9600E+02
    -11.511  0.0000E+00  0.9600E+02
    -11.410  0.4345E-04  0.9600E+02
    -11.308  0.0000E+00  0.1120E+03
    -11.207  0.0000E+00  0.1120E+03
    -11.106  0.0000E+00  0.1120E+03
    -11.005  0.0000E+00  0.1120E+03
    -10.904  0.0000E+00  0.1120E+03
    -10.802  0.1463E+01  0.1122E+03
    -10.701  0.0000E+00  0.1141E+03
    -10.600  0.2928E+01  0.1192E+03
    -10.499  0.3660E+01  0.1259E+03
    -10.398  0.0000E+00  0.1291E+03
    -10.296  0.2999E+01  0.1363E+03
    -10.195  0.5690E+01  0.1415E+03
    -10.094  0.1693E+01  0.1444E+03
     -9.993  0.4187E+01  0.1549E+03
     -9.892  0.0000E+00  0.1600E+03
     -9.790  0.0000E+00  0.1600E+03
     -9.689  0.0000E+00  0.1600E+03
     -9.588  0.0000E+00  0.1600E+03
     -9.487  0.0000E+00  0.1600E+03
     -9.386  0.0000E+00  0.1600E+03
     -9.284  0.0000E+00  0.1600E+03
     -9.183  0.0000E+00  0.1600E+03
     -9.082  0.0000E+00  0.1600E+03
     -8.981  0.0000E+00  0.1600E+03
     -8.880  0.0000E+00  0.1600E+03
     -8.778  0.0000E+00  0.1600E+03
     -8.677  0.0000E+00  0.1600E+03
     -8.576  0.0000E+00  0.1600E+03
     -8.475  0.0000E+00  0.1600E+03
     -8.374  0.0000E+00  0.1600E+03
     -8.272  0.0000E+00  0.1600E+03
     -8.171  0.0000E+00  0.1600E+03
     -8.070  0.0000E+00  0.1600E+03
     -7.969  0.0000E+00  0.1600E+03
     -7.868  0.0000E+00  0.1600E+03
     -7.766  0.0000E+00  0.1680E+03
     -7.665  0.1098E+02  0.1920E+03
     -7.564  0.0000E+00  0.1920E+03
     -7.463  0.0000E+00  0.1920E+03
     -7.362  0.0000E+00  0.1920E+03
     -7.260  0.0000E+00  0.1920E+03
     -7.159  0.0000E+00  0.1920E+03
     -7.058  0.0000E+00  0.1920E+03
     -6.957  0.5087E-03  0.1920E+03
     -6.856  0.0000E+00  0.1921E+03
     -6.754  0.0000E+00  0.1925E+03
     -6.653  0.0000E+00  0.1934E+03
     -6.552  0.0000E+00  0.1941E+03
     -6.451  0.2708E+01  0.1949E+03
     -6.350  0.0000E+00  0.1964E+03
     -6.248  0.7320E+00  0.1988E+03
     -6.147  0.1464E+01  0.2003E+03
     -6.046  0.1827E+01  0.2021E+03
     -5.945  0.3659E+01  0.2039E+03
     -5.844  0.2007E+02  0.2115E+03
     -5.742  0.7327E+00  0.2216E+03
     -5.641  0.0000E+00  0.2226E+03
     -5.540  0.0000E+00  0.2235E+03
     -5.439  0.8731E+00  0.2237E+03
     -5.338  0.0000E+00  0.2239E+03
     -5.236  0.0000E+00  0.2240E+03
     -5.135  0.0000E+00  0.2240E+03
     -5.034  0.0000E+00  0.2240E+03
     -4.933  0.0000E+00  0.2240E+03
     -4.832  0.0000E+00  0.2240E+03
     -4.730  0.0000E+00  0.2240E+03
     -4.629  0.0000E+00  0.2240E+03
     -4.528  0.0000E+00  0.2240E+03
     -4.427  0.0000E+00  0.2240E+03
     -4.326  0.0000E+00  0.2240E+03
     -4.224  0.0000E+00  0.2240E+03
     -4.123  0.0000E+00  0.2240E+03
     -4.022  0.0000E+00  0.2240E+03
     -3.921  0.0000E+00  0.2240E+03
     -3.820  0.0000E+00  0.2240E+03
     -3.718  0.0000E+00  0.2240E+03
     -3.617  0.1313E+02  0.2265E+03
     -3.516  0.0000E+00  0.2560E+03
     -3.415  0.0000E+00  0.2560E+03
     -3.314  0.0000E+00  0.2560E+03
     -3.213  0.0000E+00  0.2560E+03
     -3.111  0.0000E+00  0.2560E+03
     -3.010  0.0000E+00  0.2560E+03
     -2.909  0.0000E+00  0.2560E+03
     -2.808  0.0000E+00  0.2560E+03
     -2.707  0.0000E+00  0.2560E+03
     -2.605  0.0000E+00  0.2560E+03
     -2.504  0.0000E+00  0.2560E+03
     -2.403  0.0000E+00  0.2560E+03
     -2.302  0.0000E+00  0.2560E+03
     -2.201  0.1715E+01  0.2562E+03
     -2.099  0.1285E+01  0.2586E+03
     -1.998  0.1104E+01  0.2617E+03
     -1.897  0.1506E+01  0.2641E+03
     -1.796  0.3809E-02  0.2666E+03
     -1.695  0.6104E-07  0.2708E+03
     -1.593  0.4282E+01  0.2745E+03
     -1.492  0.1101E-09  0.2781E+03
     -1.391  0.1457E-03  0.2796E+03
     -1.290  0.8126E-16  0.2800E+03
     -1.189  0.3939E+01  0.2828E+03
     -1.087  0.0000E+00  0.2856E+03
     -0.986  0.4511E+01  0.2901E+03
     -0.885  0.2198E+01  0.2954E+03
     -0.784  0.1558E+01  0.2991E+03
     -0.683  0.1308E+01  0.3019E+03
     -0.581  0.2199E+01  0.3052E+03
     -0.480  0.1917E+01  0.3103E+03
     -0.379  0.5339E+01  0.3177E+03
     -0.278  0.3629E+01  0.3210E+03
     -0.177  0.5775E+01  0.3260E+03
     -0.075  0.8756E+01  0.3332E+03
      0.026  0.8389E+01  0.3420E+03
      0.127  0.3998E+01  0.3500E+03
      0.228  0.2015E+00  0.3531E+03
      0.329  0.6588E+01  0.3584E+03
      0.431  0.6694E+01  0.3627E+03
      0.532  0.2080E+01  0.3689E+03
      0.633  0.4669E+01  0.3762E+03
      0.734  0.7658E+01  0.3835E+03
      0.835  0.3375E+01  0.3910E+03
      0.937  0.7319E+00  0.3942E+03
      1.038  0.7320E+00  0.3964E+03
      1.139  0.3466E+00  0.3980E+03
      1.240  0.7319E+00  0.3993E+03
      1.341  0.0000E+00  0.3995E+03
      1.443  0.0000E+00  0.3999E+03
      1.544  0.0000E+00  0.3999E+03
      1.645  0.0000E+00  0.4000E+03
      1.746  0.0000E+00  0.4000E+03
      1.847  0.0000E+00  0.4000E+03
      1.949  0.0000E+00  0.4000E+03
      2.050  0.0000E+00  0.4000E+03
      2.151  0.0000E+00  0.4000E+03
      2.252  0.0000E+00  0.4001E+03
      2.353  0.1464E+01  0.4002E+03
      2.455  0.0000E+00  0.4003E+03
      2.556  0.0000E+00  0.4004E+03
      2.657  0.3110E-06  0.4006E+03
      2.758  0.0000E+00  0.4011E+03
      2.859  0.1464E+01  0.4018E+03
      2.961  0.0000E+00  0.4021E+03
      3.062  0.0000E+00  0.4028E+03
      3.163  0.1119E+01  0.4036E+03
      3.264  0.0000E+00  0.4044E+03
      3.365  0.7270E+00  0.4052E+03
      3.467  0.1441E+01  0.4063E+03
      3.568  0.1732E+01  0.4079E+03
      3.669  0.3950E-10  0.4090E+03
      3.770  0.0000E+00  0.4093E+03
      3.871  0.1464E+01  0.4104E+03
      3.973  0.0000E+00  0.4117E+03
      4.074  0.7320E+00  0.4131E+03
      4.175  0.2928E+01  0.4144E+03
      4.276  0.1789E+01  0.4159E+03
      4.377  0.2316E+01  0.4176E+03
      4.479  0.1383E+01  0.4197E+03
      4.580  0.0000E+00  0.4209E+03
      4.681  0.0000E+00  0.4220E+03
      4.782  0.0000E+00  0.4227E+03
      4.883  0.0000E+00  0.4236E+03
      4.985  0.1221E+01  0.4244E+03
      5.086  0.7321E+00  0.4252E+03
      5.187  0.0000E+00  0.4261E+03
      5.288  0.7279E+00  0.4273E+03
      5.389  0.9387E-08  0.4290E+03
      5.491  0.1327E+01  0.4315E+03
      5.592  0.1464E+01  0.4345E+03
      5.693  0.1758E+01  0.4373E+03
      5.794  0.1492E-06  0.4397E+03
      5.895  0.4741E+01  0.4427E+03
      5.997  0.2914E+01  0.4454E+03
      6.098  0.3674E+01  0.4490E+03
      6.199  0.5862E+01  0.4541E+03
      6.300  0.3658E+01  0.4581E+03
      6.401  0.3151E+01  0.4621E+03
      6.503  0.6951E+01  0.4691E+03
      6.604  0.2931E+01  0.4739E+03
      6.705  0.1468E+01  0.4775E+03
      6.806  0.2196E+01  0.4810E+03
      6.907  0.8857E+01  0.4854E+03
      7.009  0.1493E+01  0.4899E+03
      7.110  0.3661E+01  0.4935E+03
      7.211  0.2195E+01  0.4984E+03
      7.312  0.3660E+01  0.5030E+03
      7.413  0.4443E+01  0.5068E+03
      7.515  0.4929E+01  0.5118E+03
      7.616  0.2161E+01  0.5161E+03
      7.717  0.2598E+01  0.5223E+03
      7.818  0.3627E+01  0.5273E+03
      7.919  0.4649E+01  0.5337E+03
      8.021  0.2353E+01  0.5374E+03
      8.122  0.1074E+01  0.5421E+03
      8.223  0.3661E+01  0.5479E+03
      8.324  0.4995E+01  0.5529E+03
      8.425  0.2152E+01  0.5592E+03
      8.527  0.8510E+01  0.5668E+03
      8.628  0.5142E+01  0.5728E+03
      8.729  0.2196E+01  0.5785E+03
      8.830  0.1045E+02  0.5838E+03
      8.931  0.2278E+01  0.5895E+03
      9.033  0.2925E+01  0.5942E+03
      9.134  0.2310E+01  0.5980E+03
      9.235  0.7289E+00  0.5999E+03
      9.336  0.0000E+00  0.6000E+03
      9.437  0.0000E+00  0.6000E+03
      9.538  0.0000E+00  0.6000E+03
      9.640  0.0000E+00  0.6000E+03
      9.741  0.0000E+00  0.6000E+03
      9.842  0.0000E+00  0.6000E+03
      9.943  0.0000E+00  0.6000E+03
     10.044  0.0000E+00  0.6000E+03
     10.146  0.0000E+00  0.6000E+03
     10.247  0.0000E+00  0.6000E+03
     10.348  0.0000E+00  0.6000E+03
     10.449  0.0000E+00  0.6000E+03
     10.550  0.0000E+00  0.6000E+03
     10.652  0.0000E+00  0.6000E+03
