 vasp.5.4.1 24Jun15 (build Nov 25 2015 16:39:35) complex                        
  
 executed on         CrayXC-Intel date 2016.06.22  00:47:57
 running on  192 total cores
 distrk:  each k-point on  192 cores,    1 groups
 distr:  one band on NCORES_PER_BAND=  24 cores,    8 groups


--------------------------------------------------------------------------------------------------------


 INCAR:
 POTCAR:    PAW_PBE C 08Apr2002                   
 POTCAR:    PAW_PBE N 08Apr2002                   
 POTCAR:    PAW_PBE H 15Jun2001                   
 POTCAR:    PAW_PBE Pb_d 06Sep2000                
 POTCAR:    PAW_PBE I 08Apr2002                   
 POTCAR:    PAW_PBE C 08Apr2002                   
   VRHFIN =C: s2p2                                                              
   LEXCH  = PE                                                                  
   EATOM  =   147.1560 eV,   10.8157 Ry                                         
                                                                                
   TITEL  = PAW_PBE C 08Apr2002                                                 
   LULTRA =        F    use ultrasoft PP ?                                      
   IUNSCR =        1    unscreen: 0-lin 1-nonlin 2-no                           
   RPACOR =    1.200    partial core radius                                     
   POMASS =   12.011; ZVAL   =    4.000    mass and valenz                      
   RCORE  =    1.500    outmost cutoff radius                                   
   RWIGS  =    1.630; RWIGS  =    0.863    wigner-seitz radius (au A)           
   ENMAX  =  400.000; ENMIN  =  300.000 eV                                      
   ICORE  =        2    local potential                                         
   LCOR   =        T    correct aug charges                                     
   LPAW   =        T    paw PP                                                  
   EAUG   =  644.873                                                            
   DEXC   =    0.000                                                            
   RMAX   =    1.529    core radius for proj-oper                               
   RAUG   =    1.300    factor for augmentation sphere                          
   RDEP   =    1.501    radius for radial grids                                 
   RDEPT  =    1.300    core radius for aug-charge                              
                                                                                
   Atomic configuration                                                         
    4 entries                                                                   
     n  l   j            E        occ.                                          
     1  0  0.50      -273.3789   2.0000                                         
     2  0  0.50       -13.7508   2.0000                                         
     2  1  0.50        -5.2854   2.0000                                         
     3  2  1.50        -5.4423   0.0000                                         
   Description                                                                  
     l       E           TYP  RCUT    TYP  RCUT                                 
     0    -13.7508458     23  1.200                                             
     0     -8.2022199     23  1.200                                             
     1     -5.2854383     23  1.500                                             
     1     34.0145650     23  1.500                                             
     2     -5.4423304      7  1.500                                             
  local pseudopotential read in
  partial core-charges read in
  partial kinetic energy density read in
  atomic valenz-charges read in
  non local Contribution for L=           0  read in
    real space projection operators read in
  non local Contribution for L=           0  read in
    real space projection operators read in
  non local Contribution for L=           1  read in
    real space projection operators read in
  non local Contribution for L=           1  read in
    real space projection operators read in
    PAW grid and wavefunctions read in
 
   number of l-projection  operators is LMAX  =           4
   number of lm-projection operators is LMMAX =           8
 
 POTCAR:    PAW_PBE N 08Apr2002                   
   VRHFIN =N: s2p3                                                              
   LEXCH  = PE                                                                  
   EATOM  =   264.5486 eV,   19.4438 Ry                                         
                                                                                
   TITEL  = PAW_PBE N 08Apr2002                                                 
   LULTRA =        F    use ultrasoft PP ?                                      
   IUNSCR =        1    unscreen: 0-lin 1-nonlin 2-no                           
   RPACOR =    1.200    partial core radius                                     
   POMASS =   14.001; ZVAL   =    5.000    mass and valenz                      
   RCORE  =    1.500    outmost cutoff radius                                   
   RWIGS  =    1.400; RWIGS  =    0.741    wigner-seitz radius (au A)           
   ENMAX  =  400.000; ENMIN  =  300.000 eV                                      
   ICORE  =        2    local potential                                         
   LCOR   =        T    correct aug charges                                     
   LPAW   =        T    paw PP                                                  
   EAUG   =  627.112                                                            
   DEXC   =    0.000                                                            
   RMAX   =    1.529    core radius for proj-oper                               
   RAUG   =    1.300    factor for augmentation sphere                          
   RDEP   =    1.514    radius for radial grids                                 
   RDEPT  =    1.338    core radius for aug-charge                              
                                                                                
   Atomic configuration                                                         
    4 entries                                                                   
     n  l   j            E        occ.                                          
     1  0  0.50      -384.7179   2.0000                                         
     2  0  0.50       -18.5828   2.0000                                         
     2  1  0.50        -7.0898   3.0000                                         
     3  2  1.50        -6.8029   0.0000                                         
   Description                                                                  
     l       E           TYP  RCUT    TYP  RCUT                                 
     0    -18.5828119     23  1.200                                             
     0    -13.5018863     23  1.200                                             
     1     -7.0897853     23  1.500                                             
     1      9.5240782     23  1.500                                             
     2     -6.8029130      7  1.500                                             
  local pseudopotential read in
  partial core-charges read in
  partial kinetic energy density read in
  atomic valenz-charges read in
  non local Contribution for L=           0  read in
    real space projection operators read in
  non local Contribution for L=           0  read in
    real space projection operators read in
  non local Contribution for L=           1  read in
    real space projection operators read in
  non local Contribution for L=           1  read in
    real space projection operators read in
    PAW grid and wavefunctions read in
 
   number of l-projection  operators is LMAX  =           4
   number of lm-projection operators is LMMAX =           8
 
 POTCAR:    PAW_PBE H 15Jun2001                   
   VRHFIN =H: ultrasoft test                                                    
   LEXCH  = PE                                                                  
   EATOM  =    12.4884 eV,    0.9179 Ry                                         
                                                                                
   TITEL  = PAW_PBE H 15Jun2001                                                 
   LULTRA =        F    use ultrasoft PP ?                                      
   IUNSCR =        0    unscreen: 0-lin 1-nonlin 2-no                           
   RPACOR =    0.000    partial core radius                                     
   POMASS =    1.000; ZVAL   =    1.000    mass and valenz                      
   RCORE  =    1.100    outmost cutoff radius                                   
   RWIGS  =    0.700; RWIGS  =    0.370    wigner-seitz radius (au A)           
   ENMAX  =  250.000; ENMIN  =  200.000 eV                                      
   RCLOC  =    0.701    cutoff for local pot                                    
   LCOR   =        T    correct aug charges                                     
   LPAW   =        T    paw PP                                                  
   EAUG   =  400.000                                                            
   RMAX   =    1.123    core radius for proj-oper                               
   RAUG   =    1.200    factor for augmentation sphere                          
   RDEP   =    1.112    radius for radial grids                                 
   RDEPT  =    0.926    core radius for aug-charge                              
                                                                                
   Atomic configuration                                                         
    2 entries                                                                   
     n  l   j            E        occ.                                          
     1  0  0.50        -6.4927   1.0000                                         
     2  1  0.50        -3.4015   0.0000                                         
   Description                                                                  
     l       E           TYP  RCUT    TYP  RCUT                                 
     0     -6.4927494     23  1.100                                             
     0      6.8029130     23  1.100                                             
     1     -4.0817478     23  1.100                                             
  local pseudopotential read in
  atomic valenz-charges read in
  non local Contribution for L=           0  read in
    real space projection operators read in
  non local Contribution for L=           0  read in
    real space projection operators read in
  non local Contribution for L=           1  read in
    real space projection operators read in
    PAW grid and wavefunctions read in
 
   number of l-projection  operators is LMAX  =           3
   number of lm-projection operators is LMMAX =           5
 
 POTCAR:    PAW_PBE Pb_d 06Sep2000                
   VRHFIN =Pb:                                                                  
   LEXCH  = PE                                                                  
   EATOM  =  1661.6185 eV,  122.1255 Ry                                         
                                                                                
   TITEL  = PAW_PBE Pb_d 06Sep2000                                              
   LULTRA =        F    use ultrasoft PP ?                                      
   IUNSCR =        1    unscreen: 0-lin 1-nonlin 2-no                           
   RPACOR =    2.200    partial core radius                                     
   POMASS =  207.200; ZVAL   =   14.000    mass and valenz                      
   RCORE  =    2.500    outmost cutoff radius                                   
   RWIGS  =    3.260; RWIGS  =    1.725    wigner-seitz radius (au A)           
   ENMAX  =  237.835; ENMIN  =  178.376 eV                                      
   ICORE  =        3    local potential                                         
   LCOR   =        T    correct aug charges                                     
   LPAW   =        T    paw PP                                                  
   EAUG   =  391.914                                                            
   DEXC   =    0.000                                                            
   RMAX   =    2.565    core radius for proj-oper                               
   RAUG   =    1.300    factor for augmentation sphere                          
   RDEP   =    2.643    radius for radial grids                                 
   RDEPT  =    2.092    core radius for aug-charge                              
                                                                                
   Atomic configuration                                                         
   16 entries                                                                   
     n  l   j            E        occ.                                          
     1  0  0.50    -88091.8466   2.0000                                         
     2  0  0.50    -15753.4197   2.0000                                         
     2  1  1.50    -13508.1797   6.0000                                         
     3  0  0.50     -3781.7194   2.0000                                         
     3  1  1.50     -3138.2529   6.0000                                         
     3  2  2.50     -2483.2977  10.0000                                         
     4  0  0.50      -856.2895   2.0000                                         
     4  1  1.50      -645.4942   6.0000                                         
     4  2  2.50      -401.8768  10.0000                                         
     4  3  3.50      -132.9059  14.0000                                         
     5  0  0.50      -144.0950   2.0000                                         
     5  1  1.50       -85.7879   6.0000                                         
     5  2  2.50       -21.1769  10.0000                                         
     6  0  0.50       -12.0372   2.0000                                         
     6  1  1.50        -3.4971   2.0000                                         
     5  3  2.50        -2.7212   0.0000                                         
   Description                                                                  
     l       E           TYP  RCUT    TYP  RCUT                                 
     2    -21.1768523     23  2.500                                             
     2      1.3605826     23  2.500                                             
     0    -12.0371562     23  2.500                                             
     0     13.6058260     23  2.500                                             
     1     -3.4971339     23  2.500                                             
     1     13.6058260     23  2.500                                             
     3     -1.3605826      7  2.500                                             
  local pseudopotential read in
  partial core-charges read in
  partial kinetic energy density read in
  atomic valenz-charges read in
  non local Contribution for L=           2  read in
    real space projection operators read in
  non local Contribution for L=           2  read in
    real space projection operators read in
  non local Contribution for L=           0  read in
    real space projection operators read in
  non local Contribution for L=           0  read in
    real space projection operators read in
  non local Contribution for L=           1  read in
    real space projection operators read in
  non local Contribution for L=           1  read in
    real space projection operators read in
    PAW grid and wavefunctions read in
 
   number of l-projection  operators is LMAX  =           6
   number of lm-projection operators is LMMAX =          18
 
 POTCAR:    PAW_PBE I 08Apr2002                   
   VRHFIN =I : s2p5                                                             
   LEXCH  = PE                                                                  
   EATOM  =   315.8678 eV,   23.2156 Ry                                         
                                                                                
   TITEL  = PAW_PBE I 08Apr2002                                                 
   LULTRA =        F    use ultrasoft PP ?                                      
   IUNSCR =        1    unscreen: 0-lin 1-nonlin 2-no                           
   RPACOR =    2.200    partial core radius                                     
   POMASS =  126.904; ZVAL   =    7.000    mass and valenz                      
   RCORE  =    2.300    outmost cutoff radius                                   
   RWIGS  =    2.810; RWIGS  =    1.487    wigner-seitz radius (au A)           
   ENMAX  =  175.647; ENMIN  =  131.735 eV                                      
   ICORE  =        3    local potential                                         
   LCOR   =        T    correct aug charges                                     
   LPAW   =        T    paw PP                                                  
   EAUG   =  370.139                                                            
   DEXC   =    0.000                                                            
   RMAX   =    2.359    core radius for proj-oper                               
   RAUG   =    1.300    factor for augmentation sphere                          
   RDEP   =    2.392    radius for radial grids                                 
   RDEPT  =    2.170    core radius for aug-charge                              
                                                                                
   Atomic configuration                                                         
   13 entries                                                                   
     n  l   j            E        occ.                                          
     1  0  0.50    -32976.3739   2.0000                                         
     2  0  0.50     -5094.5933   2.0000                                         
     2  1  1.50     -4572.0131   6.0000                                         
     3  0  0.50     -1028.2813   2.0000                                         
     3  1  1.50      -859.0250   6.0000                                         
     3  2  2.50      -605.7620  10.0000                                         
     4  0  0.50      -180.5540   2.0000                                         
     4  1  1.50      -127.5306   6.0000                                         
     4  2  2.50       -50.2720  10.0000                                         
     5  0  0.50       -17.4058   2.0000                                         
     5  1  0.50        -7.0851   5.0000                                         
     5  2  1.50        -7.0750   0.0000                                         
     4  3  2.50        -7.0750   0.0000                                         
   Description                                                                  
     l       E           TYP  RCUT    TYP  RCUT                                 
     0    -17.4058016     23  2.300                                             
     0    -18.7663842     23  2.300                                             
     1     -7.0850686     23  2.300                                             
     1     -4.2150896     23  2.300                                             
     2     -7.0750295     23  2.300                                             
     3     -1.3605826     23  2.300                                             
  local pseudopotential read in
  partial core-charges read in
  partial kinetic energy density read in
  atomic valenz-charges read in
  non local Contribution for L=           0  read in
    real space projection operators read in
  non local Contribution for L=           0  read in
    real space projection operators read in
  non local Contribution for L=           1  read in
    real space projection operators read in
  non local Contribution for L=           1  read in
    real space projection operators read in
  non local Contribution for L=           2  read in
    real space projection operators read in
    PAW grid and wavefunctions read in
 
   number of l-projection  operators is LMAX  =           5
   number of lm-projection operators is LMMAX =          13
 

 ----------------------------------------------------------------------------- 
|                                                                             |
|  ADVICE TO THIS USER RUNNING 'VASP/VAMP'   (HEAR YOUR MASTER'S VOICE ...):  |
|                                                                             |
|      You have a (more or less) 'large supercell' and for larger cells       |
|      it might be more efficient to use real space projection opertators     |
|      So try LREAL= Auto  in the INCAR   file.                               |
|      Mind: At the moment your POTCAR file does not contain real space       |
|       projectors, and has to be modified,  BUT if you                       |
|      want to do an extremely  accurate calculation you might also keep the  |
|      reciprocal projection scheme          (i.e. LREAL=.FALSE.)             |
|                                                                             |
 ----------------------------------------------------------------------------- 


 ----------------------------------------------------------------------------- 
|                                                                             |
|  ADVICE TO THIS USER RUNNING 'VASP/VAMP'   (HEAR YOUR MASTER'S VOICE ...):  |
|                                                                             |
|      You enforced a specific xc-type in the INCAR file,                     |
|      a different type was found on the POTCAR file                          |
|          I HOPE YOU KNOW, WHAT YOU ARE  DOING                               |
|                                                                             |
 ----------------------------------------------------------------------------- 

  PAW_PBE C 08Apr2002                   :
 energy of atom  1       EATOM= -147.1560
 kinetic energy error for atom=    0.0032 (will be added to EATOM!!)
  PAW_PBE N 08Apr2002                   :
 energy of atom  2       EATOM= -264.5486
 kinetic energy error for atom=    0.0061 (will be added to EATOM!!)
  PAW_PBE H 15Jun2001                   :
 energy of atom  3       EATOM=  -12.4884
 kinetic energy error for atom=    0.0002 (will be added to EATOM!!)
  PAW_PBE Pb_d 06Sep2000                :
 energy of atom  4       EATOM=-1661.6185
 kinetic energy error for atom=    0.0012 (will be added to EATOM!!)
  PAW_PBE I 08Apr2002                   :
 energy of atom  5       EATOM= -315.8678
 kinetic energy error for atom=    0.0003 (will be added to EATOM!!)
 
 
 POSCAR: C N H Pb I                              
  positions in direct lattice
  No initial velocities read in
 exchange correlation table for  LEXCH =       14
   RHO(1)=    0.500       N(1)  =     2000
   RHO(2)=  100.500       N(2)  =     4000
 


--------------------------------------------------------------------------------------------------------


 ion  position               nearest neighbor table
   1  0.197  0.250  0.229-  17 1.10  25 1.10  33 1.10   9 1.48
   2  0.697  0.250  0.229-  18 1.10  26 1.10  34 1.10  10 1.48
   3  0.197  0.750  0.229-  19 1.10  27 1.10  35 1.10  11 1.48
   4  0.697  0.750  0.229-  20 1.10  28 1.10  36 1.10  12 1.48
   5  0.197  0.250  0.729-  21 1.10  29 1.10  37 1.10  13 1.48
   6  0.697  0.250  0.729-  22 1.10  30 1.10  38 1.10  14 1.48
   7  0.197  0.750  0.729-  23 1.10  31 1.10  39 1.10  15 1.48
   8  0.697  0.750  0.729-  24 1.10  32 1.10  40 1.10  16 1.48
   9  0.306  0.250  0.272-  57 1.04  41 1.05  49 1.05   1 1.48
  10  0.804  0.250  0.276-  58 1.04  42 1.05  50 1.05   2 1.48
  11  0.304  0.750  0.276-  59 1.04  43 1.05  51 1.05   3 1.48
  12  0.806  0.750  0.272-  60 1.04  44 1.05  52 1.05   4 1.48
  13  0.304  0.250  0.776-  61 1.04  45 1.05  53 1.05   5 1.48
  14  0.806  0.250  0.772-  62 1.04  46 1.05  54 1.05   6 1.48
  15  0.306  0.750  0.772-  63 1.04  47 1.05  55 1.05   7 1.48
  16  0.804  0.750  0.776-  64 1.04  48 1.05  56 1.05   8 1.48
  17  0.204  0.250  0.143-   1 1.10
  18  0.707  0.250  0.143-   2 1.10
  19  0.207  0.750  0.143-   3 1.10
  20  0.704  0.750  0.143-   4 1.10
  21  0.207  0.250  0.643-   5 1.10
  22  0.704  0.250  0.643-   6 1.10
  23  0.204  0.750  0.643-   7 1.10
  24  0.707  0.750  0.643-   8 1.10
  25  0.155  0.322  0.256-   1 1.10
  26  0.654  0.322  0.255-   2 1.10
  27  0.154  0.822  0.255-   3 1.10
  28  0.655  0.822  0.256-   4 1.10
  29  0.154  0.322  0.755-   5 1.10
  30  0.655  0.322  0.756-   6 1.10
  31  0.155  0.822  0.756-   7 1.10
  32  0.654  0.822  0.755-   8 1.10
  33  0.155  0.177  0.256-   1 1.10
  34  0.654  0.177  0.255-   2 1.10
  35  0.154  0.677  0.255-   3 1.10
  36  0.655  0.677  0.256-   4 1.10
  37  0.154  0.177  0.755-   5 1.10
  38  0.655  0.177  0.756-   6 1.10
  39  0.155  0.677  0.756-   7 1.10
  40  0.654  0.677  0.755-   8 1.10
  41  0.349  0.318  0.248-   9 1.05
  42  0.848  0.318  0.254-  10 1.05
  43  0.348  0.818  0.254-  11 1.05
  44  0.849  0.818  0.248-  12 1.05
  45  0.348  0.318  0.754-  13 1.05
  46  0.849  0.318  0.748-  14 1.05
  47  0.349  0.818  0.748-  15 1.05
  48  0.848  0.818  0.754-  16 1.05
  49  0.349  0.182  0.248-   9 1.05
  50  0.848  0.182  0.254-  10 1.05
  51  0.348  0.682  0.254-  11 1.05
  52  0.849  0.682  0.248-  12 1.05
  53  0.348  0.182  0.754-  13 1.05
  54  0.849  0.182  0.748-  14 1.05
  55  0.349  0.682  0.748-  15 1.05
  56  0.848  0.682  0.754-  16 1.05
  57  0.306  0.250  0.354-   9 1.04
  58  0.800  0.250  0.358-  10 1.04
  59  0.300  0.750  0.358-  11 1.04
  60  0.806  0.750  0.354-  12 1.04
  61  0.300  0.250  0.858-  13 1.04
  62  0.806  0.250  0.854-  14 1.04
  63  0.306  0.750  0.854-  15 1.04
  64  0.800  0.750  0.858-  16 1.04
  65  0.472  0.500  0.489-  90 3.08  87 3.14  85 3.14  77 3.17  73 3.22  89 3.25
  66  0.972  0.500  0.489-  89 3.08  86 3.14  88 3.14  78 3.17  74 3.22  90 3.25
  67  0.472  0.000  0.489-  92 3.08  87 3.14  85 3.14  79 3.17  75 3.22  91 3.25
  68  0.972  1.000  0.489-  91 3.08  86 3.14  88 3.14  80 3.17  76 3.22  92 3.25
  69  0.472  0.500  0.989-  94 3.08  81 3.14  83 3.14  73 3.17  77 3.22  93 3.25
  70  0.972  0.500  0.989-  93 3.08  84 3.14  82 3.14  74 3.17  78 3.22  94 3.25
  71  0.472  1.000  0.989-  96 3.08  81 3.14  83 3.14  75 3.17  79 3.22  95 3.25
  72  0.972  0.000  0.989-  95 3.08  84 3.14  82 3.14  76 3.17  80 3.22  96 3.25
  73  0.455  0.501  0.238-  69 3.17  65 3.22
  74  0.955  0.499  0.238-  70 3.17  66 3.22
  75  0.455  0.999  0.238-  71 3.17  67 3.22
  76  0.955  0.001  0.238-  72 3.17  68 3.22
  77  0.455  0.499  0.738-  65 3.17  69 3.22
  78  0.955  0.501  0.738-  66 3.17  70 3.22
  79  0.455  0.001  0.738-  67 3.17  71 3.22
  80  0.955  0.999  0.738-  68 3.17  72 3.22
  81  0.454  0.250  0.012-  71 3.14  69 3.14
  82  0.946  0.250  0.012-  72 3.14  70 3.14
  83  0.446  0.750  0.012-  69 3.14  71 3.14
  84  0.954  0.750  0.012-  70 3.14  72 3.14
  85  0.446  0.250  0.512-  67 3.14  65 3.14
  86  0.954  0.250  0.512-  68 3.14  66 3.14
  87  0.454  0.750  0.512-  65 3.14  67 3.14
  88  0.946  0.750  0.512-  66 3.14  68 3.14
  89  0.216  0.505  0.461-  66 3.08  65 3.25
  90  0.716  0.495  0.461-  65 3.08  66 3.25
  91  0.216  0.995  0.461-  68 3.08  67 3.25
  92  0.716  0.005  0.461-  67 3.08  68 3.25
  93  0.216  0.495  0.961-  70 3.08  69 3.25
  94  0.716  0.505  0.961-  69 3.08  70 3.25
  95  0.216  0.005  0.961-  72 3.08  71 3.25
  96  0.716  0.995  0.961-  71 3.08  72 3.25
 
  LATTYP: Found a triclinic cell.
 ALAT       =    17.8238589327
 B/A-ratio  =     0.6989248630
 C/A-ratio  =     1.0156975818
 COS(alpha) =     0.0001355172
 COS(beta)  =     0.5146378593
 COS(gamma) =     0.6988877578
  
  Lattice vectors:
  
 A1 = (  -0.1406063366, -12.4576271275, -12.7466742118)
 A2 = (  -0.0011956322, -12.4575380825,   0.0007464135)
 A3 = ( -12.7162481321,  -0.0020049566, -12.8856194186)


Analysis of symmetry for initial positions (statically):
=====================================================================
 Subroutine PRICEL returns following result:
 
  LATTYP: Found a triclinic cell.
 ALAT       =     8.8524544993
 B/A-ratio  =     1.4072411401
 C/A-ratio  =     1.0225215175
 COS(alpha) =     0.0001355172
 COS(beta)  =     0.5046167836
 COS(gamma) =     0.7037964938
  
  Lattice vectors:
  
 A1 = (   6.2890165300,   6.2297269971,   0.0687261899)
 A2 = (   0.0011956322,  12.4575380825,  -0.0007464135)
 A3 = (   6.3581240661,   0.0010024783,   6.4428097093)
 
   4 primitive cells build up your supercell.
 

 Routine SETGRP: Setting up the symmetry group for a 
 triclinic supercell.


 Subroutine GETGRP returns: Found  1 space group operations
 (whereof  1 operations were pure point group operations)
 out of a pool of  2 trial point group operations.


The static configuration has the point symmetry C_1 .


Analysis of symmetry for dynamics (positions and initial velocities):
=====================================================================
 Subroutine PRICEL returns following result:
 
  LATTYP: Found a triclinic cell.
 ALAT       =     8.8524544993
 B/A-ratio  =     1.4072411401
 C/A-ratio  =     1.0225215175
 COS(alpha) =     0.0001355172
 COS(beta)  =     0.5046167836
 COS(gamma) =     0.7037964938
  
  Lattice vectors:
  
 A1 = (   6.2890165300,   6.2297269971,   0.0687261899)
 A2 = (   0.0011956322,  12.4575380825,  -0.0007464135)
 A3 = (   6.3581240661,   0.0010024783,   6.4428097093)
 
   4 primitive cells build up your supercell.
 

 Routine SETGRP: Setting up the symmetry group for a 
 triclinic supercell.


 Subroutine GETGRP returns: Found  1 space group operations
 (whereof  1 operations were pure point group operations)
 out of a pool of  2 trial point group operations.


The dynamic configuration has the point symmetry C_1 .


Analysis of structural, dynamic, and magnetic symmetry:
=====================================================================
 Subroutine PRICEL returns following result:
 
  LATTYP: Found a triclinic cell.
 ALAT       =     8.8524544993
 B/A-ratio  =     1.4072411401
 C/A-ratio  =     1.0225215175
 COS(alpha) =     0.0001355172
 COS(beta)  =     0.5046167836
 COS(gamma) =     0.7037964938
  
  Lattice vectors:
  
 A1 = (   6.2890165300,   6.2297269971,   0.0687261899)
 A2 = (   0.0011956322,  12.4575380825,  -0.0007464135)
 A3 = (   6.3581240661,   0.0010024783,   6.4428097093)
 
   4 primitive cells build up your supercell.
 

 Routine SETGRP: Setting up the symmetry group for a 
 triclinic supercell.


 Subroutine GETGRP returns: Found  1 space group operations
 (whereof  1 operations were pure point group operations)
 out of a pool of  2 trial point group operations.


The (compounded) configuration has the point symmetry C_1 .


 Subroutine INISYM returns: Found  1 space group operations
 (whereof  1 operations are pure point group operations),
 and found     4 'primitive' translations

 
 
 KPOINTS: Automatic 3x3x3                         

Automatic generation of k-mesh.
Space group operators:
 irot       det(A)        alpha          n_x          n_y          n_z        tau_x        tau_y        tau_z
    1     1.000000     0.000000     1.000000     0.000000     0.000000     0.000000     0.000000     0.000000
 
 Subroutine IBZKPT returns following result:
 ===========================================
 
 Found     27 irreducible k-points:
 
 Following reciprocal coordinates:
            Coordinates               Weight
  0.000000  0.000000  0.000000      1.000000
  0.333333 -0.000000 -0.000000      1.000000
 -0.333333  0.000000  0.000000      1.000000
  0.000000  0.333333 -0.000000      1.000000
  0.333333  0.333333  0.000000      1.000000
 -0.333333  0.333333  0.000000      1.000000
 -0.000000 -0.333333  0.000000      1.000000
  0.333333 -0.333333 -0.000000      1.000000
 -0.333333 -0.333333 -0.000000      1.000000
  0.000000  0.000000  0.333333      1.000000
  0.333333  0.000000  0.333333      1.000000
 -0.333333  0.000000  0.333333      1.000000
  0.000000  0.333333  0.333333      1.000000
  0.333333  0.333333  0.333333      1.000000
 -0.333333  0.333333  0.333333      1.000000
  0.000000 -0.333333  0.333333      1.000000
  0.333333 -0.333333  0.333333      1.000000
 -0.333333 -0.333333  0.333333      1.000000
  0.000000  0.000000 -0.333333      1.000000
  0.333333 -0.000000 -0.333333      1.000000
 -0.333333 -0.000000 -0.333333      1.000000
 -0.000000  0.333333 -0.333333      1.000000
  0.333333  0.333333 -0.333333      1.000000
 -0.333333  0.333333 -0.333333      1.000000
 -0.000000 -0.333333 -0.333333      1.000000
  0.333333 -0.333333 -0.333333      1.000000
 -0.333333 -0.333333 -0.333333      1.000000
 
 Following cartesian coordinates:
            Coordinates               Weight
  0.000000  0.000000  0.000000      1.000000
  0.026507 -0.000003 -0.000290      1.000000
 -0.026507  0.000003  0.000290      1.000000
 -0.000004  0.026758 -0.000000      1.000000
  0.026503  0.026755 -0.000290      1.000000
 -0.026511  0.026760  0.000290      1.000000
  0.000004 -0.026758  0.000000      1.000000
  0.026511 -0.026760 -0.000290      1.000000
 -0.026503 -0.026755  0.000290      1.000000
 -0.000287  0.000002  0.026152      1.000000
  0.026220 -0.000001  0.025862      1.000000
 -0.026794  0.000004  0.026442      1.000000
 -0.000291  0.026759  0.026152      1.000000
  0.026215  0.026757  0.025862      1.000000
 -0.026798  0.026762  0.026442      1.000000
 -0.000283 -0.026756  0.026152      1.000000
  0.026224 -0.026759  0.025862      1.000000
 -0.026790 -0.026753  0.026442      1.000000
  0.000287 -0.000002 -0.026152      1.000000
  0.026794 -0.000004 -0.026442      1.000000
 -0.026220  0.000001 -0.025862      1.000000
  0.000283  0.026756 -0.026152      1.000000
  0.026790  0.026753 -0.026442      1.000000
 -0.026224  0.026759 -0.025862      1.000000
  0.000291 -0.026759 -0.026152      1.000000
  0.026798 -0.026762 -0.026442      1.000000
 -0.026215 -0.026757 -0.025862      1.000000
 


--------------------------------------------------------------------------------------------------------




 Dimension of arrays:
   k-points           NKPTS =     27   k-points in BZ     NKDIM =     27   number of bands    NBANDS=    600
   number of dos      NEDOS =    301   number of ions     NIONS =     96
   non local maximal  LDIM  =      6   non local SUM 2l+1 LMDIM =     18
   total plane-waves  NPLWV = ******
   max r-space proj   IRMAX =      1   max aug-charges    IRDMAX= 314103
   dimension x,y,z NGX =   112 NGY =  108 NGZ =  112
   dimension x,y,z NGXF=   224 NGYF=  216 NGZF=  224
   support grid    NGXF=   448 NGYF=  432 NGZF=  448
   ions per type =               8   8  48   8  24
 NGX,Y,Z   is equivalent  to a cutoff of  14.80, 14.41, 14.61 a.u.
 NGXF,Y,Z  is equivalent  to a cutoff of  29.61, 28.83, 29.21 a.u.


 I would recommend the setting:
   dimension x,y,z NGX =   109 NGY =  107 NGZ =  110
 SYSTEM =  MAPbI3-Cubic                            
 POSCAR =  C N H Pb I                              

 Startparameter for this run:
   NWRITE =      2    write-flag & timer
   PREC   = accura    normal or accurate (medium, high low for compatibility)
   ISTART =      0    job   : 0-new  1-cont  2-samecut
   ICHARG =      2    charge: 1-file 2-atom 10-const
   ISPIN  =      1    spin polarized calculation?
   LNONCOLLINEAR =      T non collinear calculations
   LSORBIT =      T    spin-orbit coupling
   INIWAV =      1    electr: 0-lowe 1-rand  2-diag
   LASPH  =      F    aspherical Exc in radial PAW
   METAGGA=      F    non-selfconsistent MetaGGA calc.

 Electronic Relaxation 1
   ENCUT  =  700.0 eV  51.45 Ry    7.17 a.u.  27.13 26.87 27.50*2*pi/ulx,y,z
   ENINI  =  700.0     initial cutoff
   ENAUG  =  644.9 eV  augmentation charge cutoff
   NELM   =     60;   NELMIN=  2; NELMDL= -5     # of ELM steps 
   EDIFF  = 0.1E-07   stopping-criterion for ELM
   LREAL  =      F    real-space projection
   NLSPLINE    = F    spline interpolate recip. space projectors
   LCOMPAT=      F    compatible to vasp.4.4
   GGA_COMPAT  = T    GGA compatible to vasp.4.4-vasp.4.6
   LMAXPAW     = -100 max onsite density
   LMAXMIX     =    2 max onsite mixed and CHGCAR
   VOSKOWN=      0    Vosko Wilk Nusair interpolation
   ROPT   =    0.00000   0.00000   0.00000   0.00000
   ROPT   =    0.00000
 Ionic relaxation
   EDIFFG = 0.1E-06   stopping-criterion for IOM
   NSW    =      0    number of steps for IOM
   NBLOCK =      1;   KBLOCK =      1    inner block; outer block 
   IBRION =     -1    ionic relax: 0-MD 1-quasi-New 2-CG
   NFREE  =      0    steps in history (QN), initial steepest desc. (CG)
   ISIF   =      2    stress and relaxation
   IWAVPR =     10    prediction:  0-non 1-charg 2-wave 3-comb
   ISYM   =      2    0-nonsym 1-usesym 2-fastsym
   LCORR  =      T    Harris-Foulkes like correction to forces

   POTIM  = 0.5000    time-step for ionic-motion
   TEIN   =    0.0    initial temperature
   TEBEG  =    0.0;   TEEND  =   0.0 temperature during run
   SMASS  =  -3.00    Nose mass-parameter (am)
   estimated Nose-frequenzy (Omega)   =  0.10E-29 period in steps =****** mass=  -0.362E-26a.u.
   SCALEE = 1.0000    scale energy and forces
   NPACO  =    256;   APACO  = 16.0  distance and # of slots for P.C.
   PSTRESS=    0.0 pullay stress

  Mass of Ions in am
   POMASS =  12.01 14.00  1.00207.20126.90
  Ionic Valenz
   ZVAL   =   4.00  5.00  1.00 14.00  7.00
  Atomic Wigner-Seitz radii
   RWIGS  =  -1.00 -1.00 -1.00 -1.00 -1.00
  virtual crystal weights 
   VCA    =   1.00  1.00  1.00  1.00  1.00
   NELECT =     400.0000    total number of electrons
   NUPDOWN=      -1.0000    fix difference up-down

 DOS related values:
   EMIN   =  10.00;   EMAX   =-10.00  energy-range for DOS
   EFERMI =   0.00
   ISMEAR =     0;   SIGMA  =   0.00  broadening in eV -4-tet -1-fermi 0-gaus

 Electronic relaxation 2 (details)
   IALGO  =     38    algorithm
   LDIAG  =      T    sub-space diagonalisation (order eigenvalues)
   LSUBROT=      F    optimize rotation matrix (better conditioning)
   TURBO    =      0    0=normal 1=particle mesh
   IRESTART =      0    0=no restart 2=restart with 2 vectors
   NREBOOT  =      0    no. of reboots
   NMIN     =      0    reboot dimension
   EREF     =   0.00    reference energy to select bands
   IMIX   =      4    mixing-type and parameters
     AMIX     =   0.40;   BMIX     =  1.00
     AMIX_MAG =   1.60;   BMIX_MAG =  1.00
     AMIN     =   0.10
     WC   =   100.;   INIMIX=   1;  MIXPRE=   1;  MAXMIX= -45

 Intra band minimization:
   WEIMIN = 0.0000     energy-eigenvalue tresh-hold
   EBREAK =  0.42E-11  absolut break condition
   DEPER  =   0.30     relativ break condition  

   TIME   =   0.40     timestep for ELM

  volume/ion in A,a.u.               =      20.80       140.38
  Fermi-wavevector in a.u.,A,eV,Ry     =   0.957863  1.810099 12.483376  0.917502
  Thomas-Fermi vector in A             =   2.086919
 
 Write flags
   LWAVE  =      F    write WAVECAR
   LCHARG =      F    write CHGCAR
   LVTOT  =      F    write LOCPOT, total local potential
   LVHAR  =      F    write LOCPOT, Hartree potential only
   LELF   =      F    write electronic localiz. function (ELF)
   LORBIT =      0    0 simple, 1 ext, 2 COOP (PROOUT)


 Dipole corrections
   LMONO  =      F    monopole corrections only (constant potential shift)
   LDIPOL =      F    correct potential (dipole corrections)
   IDIPOL =      0    1-x, 2-y, 3-z, 4-all directions 
   EPSILON=  1.0000000 bulk dielectric constant

 Core level calculations are selected ICORELEVEL =  1
 Exchange correlation treatment:
   GGA     =    PS    GGA type
   LEXCH   =    14    internal setting for exchange type
   VOSKOWN=      0    Vosko Wilk Nusair interpolation
   LHFCALC =     F    Hartree Fock is set to
   LHFONE  =     F    Hartree Fock one center treatment
   AEXX    =    0.0000 exact exchange contribution

 Linear response parameters
   LEPSILON=     F    determine dielectric tensor
   LRPA    =     F    only Hartree local field effects (RPA)
   LNABLA  =     F    use nabla operator in PAW spheres
   LVEL    =     F    velocity operator in full k-point grid
   LINTERFAST=   F  fast interpolation
   KINTER  =     0    interpolate to denser k-point grid
   CSHIFT  =0.1000    complex shift for real part using Kramers Kronig
   OMEGAMAX=  -1.0    maximum frequency
   DEG_THRESHOLD= 0.2000000E-02 threshold for treating states as degnerate
   RTIME   =    0.100 relaxation time in fs

 Orbital magnetization related:
   ORBITALMAG=     F  switch on orbital magnetization
   LCHIMAG   =     F  perturbation theory with respect to B field
   DQ        =  0.001000  dq finite difference perturbation B field



--------------------------------------------------------------------------------------------------------


 Static calculation
 charge density and potential will be updated during run
 non collinear spin polarized calculation
 Variant of blocked Davidson
 Davidson routine will perform the subspace rotation
 perform sub-space diagonalisation
    after iterative eigenvector-optimisation
 modified Broyden-mixing scheme, WC =      100.0
 initial mixing is a Kerker type mixing with AMIX =  0.4000 and BMIX =      1.0000
 Hartree-type preconditioning will be used
 using additional bands          400
 reciprocal scheme for non local part
 use partial core corrections
 calculate Harris-corrections to forces 
   (improved forces if not selfconsistent)
 use gradient corrections 
 use of overlap-Matrix (Vanderbilt PP)
 Gauss-broadening in eV      SIGMA  =   0.00


--------------------------------------------------------------------------------------------------------


  energy-cutoff  :      700.00
  volume of cell :     1996.98
      direct lattice vectors                 reciprocal lattice vectors
    12.576837428  0.001915912  0.138198793     0.079520802 -0.000007684 -0.000869670
     0.001195632 12.457538083 -0.000746413    -0.000012224  0.080272684 -0.000000427
     0.139410704  0.000089045 12.747420625    -0.000862111  0.000004784  0.078456671

  length of vectors
    12.577596840 12.457538162 12.748182927     0.079525558  0.080272685  0.078461408


 
 k-points in units of 2pi/SCALE and weight: Automatic 3x3x3                         
   0.00000000  0.00000000  0.00000000       0.037
   0.02650693 -0.00000256 -0.00028989       0.037
  -0.02650693  0.00000256  0.00028989       0.037
  -0.00000407  0.02675756 -0.00000014       0.037
   0.02650286  0.02675500 -0.00029003       0.037
  -0.02651101  0.02676012  0.00028975       0.037
   0.00000407 -0.02675756  0.00000014       0.037
   0.02651101 -0.02676012 -0.00028975       0.037
  -0.02650286 -0.02675500  0.00029003       0.037
  -0.00028737  0.00000159  0.02615222       0.037
   0.02621956 -0.00000097  0.02586233       0.037
  -0.02679430  0.00000416  0.02644211       0.037
  -0.00029144  0.02675916  0.02615208       0.037
   0.02621549  0.02675659  0.02586219       0.037
  -0.02679838  0.02676172  0.02644197       0.037
  -0.00028330 -0.02675597  0.02615237       0.037
   0.02622364 -0.02675853  0.02586248       0.037
  -0.02679023 -0.02675341  0.02644226       0.037
   0.00028737 -0.00000159 -0.02615222       0.037
   0.02679430 -0.00000416 -0.02644211       0.037
  -0.02621956  0.00000097 -0.02586233       0.037
   0.00028330  0.02675597 -0.02615237       0.037
   0.02679023  0.02675341 -0.02644226       0.037
  -0.02622364  0.02675853 -0.02586248       0.037
   0.00029144 -0.02675916 -0.02615208       0.037
   0.02679838 -0.02676172 -0.02644197       0.037
  -0.02621549 -0.02675659 -0.02586219       0.037
 
 k-points in reciprocal lattice and weights: Automatic 3x3x3                         
   0.00000000  0.00000000  0.00000000       0.037
   0.33333333 -0.00000000 -0.00000000       0.037
  -0.33333333  0.00000000  0.00000000       0.037
   0.00000000  0.33333333 -0.00000000       0.037
   0.33333333  0.33333333  0.00000000       0.037
  -0.33333333  0.33333333  0.00000000       0.037
  -0.00000000 -0.33333333  0.00000000       0.037
   0.33333333 -0.33333333 -0.00000000       0.037
  -0.33333333 -0.33333333 -0.00000000       0.037
   0.00000000  0.00000000  0.33333333       0.037
   0.33333333  0.00000000  0.33333333       0.037
  -0.33333333  0.00000000  0.33333333       0.037
   0.00000000  0.33333333  0.33333333       0.037
   0.33333333  0.33333333  0.33333333       0.037
  -0.33333333  0.33333333  0.33333333       0.037
   0.00000000 -0.33333333  0.33333333       0.037
   0.33333333 -0.33333333  0.33333333       0.037
  -0.33333333 -0.33333333  0.33333333       0.037
   0.00000000  0.00000000 -0.33333333       0.037
   0.33333333 -0.00000000 -0.33333333       0.037
  -0.33333333 -0.00000000 -0.33333333       0.037
  -0.00000000  0.33333333 -0.33333333       0.037
   0.33333333  0.33333333 -0.33333333       0.037
  -0.33333333  0.33333333 -0.33333333       0.037
  -0.00000000 -0.33333333 -0.33333333       0.037
   0.33333333 -0.33333333 -0.33333333       0.037
  -0.33333333 -0.33333333 -0.33333333       0.037
 
 position of ions in fractional coordinates (direct lattice) 
   0.19710136  0.24989983  0.22886689
   0.69688691  0.24991672  0.22896382
   0.19688691  0.74991672  0.22896382
   0.69710136  0.74989983  0.22886689
   0.19688691  0.24991672  0.72896382
   0.69710136  0.24989983  0.72886689
   0.19710136  0.74989983  0.72886689
   0.69688691  0.74991672  0.72896382
   0.30552865  0.24999822  0.27184762
   0.80354579  0.25000907  0.27592097
   0.30354579  0.75000907  0.27592097
   0.80552865  0.74999822  0.27184762
   0.30354579  0.25000907  0.77592097
   0.80552865  0.24999822  0.77184762
   0.30552865  0.74999822  0.77184762
   0.80354579  0.75000907  0.77592097
   0.20353714  0.24981269  0.14272321
   0.70661319  0.24982950  0.14305404
   0.20661319  0.74982950  0.14305404
   0.70353714  0.74981269  0.14272321
   0.20661319  0.24982950  0.64305404
   0.70353714  0.24981269  0.64272321
   0.20353714  0.74981269  0.64272321
   0.70661319  0.74982950  0.64305404
   0.15489874  0.32233159  0.25621506
   0.65377687  0.32237278  0.25481558
   0.15377687  0.82237278  0.25481558
   0.65489874  0.82233159  0.25621506
   0.15377687  0.32237278  0.75481558
   0.65489874  0.32233159  0.75621506
   0.15489874  0.82233159  0.75621506
   0.65377687  0.82237278  0.75481558
   0.15501089  0.17747693  0.25634875
   0.65387478  0.17747522  0.25495266
   0.15387478  0.67747522  0.25495266
   0.65501089  0.67747693  0.25634875
   0.15387478  0.17747522  0.75495266
   0.65501089  0.17747693  0.75634875
   0.15501089  0.67747693  0.75634875
   0.65387478  0.67747522  0.75495266
   0.34873354  0.31785828  0.24797618
   0.84753561  0.31789028  0.25353681
   0.34753561  0.81789028  0.25353681
   0.84873354  0.81785828  0.24797618
   0.34753561  0.31789028  0.75353681
   0.84873354  0.31785828  0.74797618
   0.34873354  0.81785828  0.74797618
   0.84753561  0.81789028  0.75353681
   0.34881275  0.18211599  0.24810314
   0.84759785  0.18209379  0.25367866
   0.34759785  0.68209379  0.25367866
   0.84881275  0.68211599  0.24810314
   0.34759785  0.18209379  0.75367866
   0.84881275  0.18211599  0.74810314
   0.34881275  0.68211599  0.74810314
   0.84759785  0.68209379  0.75367866
   0.30585286  0.25008235  0.35363454
   0.80048729  0.25010469  0.35758395
   0.30048729  0.75010469  0.35758395
   0.80585286  0.75008235  0.35363454
   0.30048729  0.25010469  0.85758395
   0.80585286  0.25008235  0.85363454
   0.30585286  0.75008235  0.85363454
   0.80048729  0.75010469  0.85758395
   0.47244126  0.49972486  0.48881074
   0.97244229  0.50025473  0.48881215
   0.47244229  0.00025473  0.48881215
   0.97244126  0.99972486  0.48881074
   0.47244229  0.50025473  0.98881215
   0.97244126  0.49972486  0.98881074
   0.47244126  0.99972486  0.98881074
   0.97244229  0.00025473  0.98881215
   0.45473749  0.50053949  0.23757306
   0.95474986  0.49944261  0.23757243
   0.45474986  0.99944261  0.23757243
   0.95473749  0.00053949  0.23757306
   0.45474986  0.49944261  0.73757243
   0.95473749  0.50053949  0.73757306
   0.45473749  0.00053949  0.73757306
   0.95474986  0.99944261  0.73757243
   0.45370187  0.24997803  0.01165055
   0.94556900  0.24997999  0.01201389
   0.44556900  0.74997999  0.01201389
   0.95370187  0.74997803  0.01165055
   0.44556900  0.24997999  0.51201389
   0.95370187  0.24997803  0.51165055
   0.45370187  0.74997803  0.51165055
   0.94556900  0.74997999  0.51201389
   0.21617043  0.50466207  0.46124457
   0.71617245  0.49533280  0.46123483
   0.21617245  0.99533280  0.46123483
   0.71617043  0.00466207  0.46124457
   0.21617245  0.49533280  0.96123483
   0.71617043  0.50466207  0.96124457
   0.21617043  0.00466207  0.96124457
   0.71617245  0.99533280  0.96123483
 
 position of ions in cartesian coordinates  (Angst):
   2.51111703  3.11353465  2.94451515
   8.79685214  3.11470263  3.01482050
   2.50903124  9.34251371  2.94534790
   8.80013356  9.34326165  3.01324134
   2.57813878  3.11378919  9.31943142
   8.86924109  3.11453713  9.38732485
   2.58142020  9.34234822  9.31785225
   8.86715531  9.34351619  9.38815761
   3.88078153  3.11497186  3.50739308
  10.14483000  3.11606155  3.62814311
   3.85700911  9.34387264  3.55867051
  10.16979806  9.34469886  3.57611927
   3.92611664  3.11514812  9.93275403
  10.23890559  3.11597434  9.95020279
   3.95108469  9.34378542  9.88073019
  10.21513317  9.34487512 10.00148022
   2.58004937  3.11245381  1.84729490
   8.90720122  3.11362705  1.92103668
   2.61938032  9.34143814  1.85156407
   8.86906590  9.34218080  1.91602109
   2.68848786  3.11271362  8.22564759
   8.93817344  3.11345629  8.29010461
   2.65035254  9.34126737  8.22063200
   8.97750439  9.34244061  8.29437378
   1.98424077  4.01577764  3.28724731
   8.25835493  4.01724650  3.33835197
   1.97053403 10.24505759  3.26887936
   8.27325730 10.24550463  3.35597350
   2.03964156  4.01633307  9.64296288
   8.34236483  4.01678011  9.73005702
   2.05454393 10.24459120  9.66058442
   8.32865809 10.24606007  9.71168907
   1.98549666  2.21124544  3.28907518
   8.25943216  2.21217973  3.34022108
   1.97161126  8.43999081  3.27074848
   8.27451319  8.44097244  3.35780137
   2.04071880  2.21126629  9.64483200
   8.34362072  2.21224792  9.73188489
   2.05579983  8.44005901  9.66241229
   8.32973533  8.44099329  9.71355819
   4.42091566  3.96042188  3.20901391
  10.69504342  3.96177669  3.34883144
   4.40722252 10.18958778  3.27935884
  10.70993219 10.19014888  3.27774010
   4.47633005  3.96086326  9.65344236
  10.77903973  3.96142436  9.65182362
   4.49121883 10.18923545  9.58235102
  10.76534658 10.19059025  9.72216855
   4.42176722  2.26940721  3.21074463
  10.69568361  2.27008683  3.35074968
   4.40786271  8.49789791  3.28127708
  10.71078375  8.49913421  3.27947082
   4.47697025  2.26917339  9.65536060
  10.77989129  2.27040969  9.65355434
   4.49207039  8.49822078  9.58408173
  10.76598678  8.49890039  9.72408679
   3.89626112  3.11602791  4.55001004
  10.11774854  3.11725422  4.66871273
   3.82992765  9.34506530  4.59924013
  10.18527765  9.34575490  4.61873623
   3.89903518  3.11634078 10.97332365
  10.25438519  3.11703038 10.99281974
   3.96656429  9.34484147 10.92334714
  10.18805171  9.34606778 11.04204984
   6.01055988  6.22629011  6.29599395
  12.29899236  6.23384904  6.36511106
   6.00997583  0.00412204  6.29638487
  12.29957641 12.45601710  6.36472014
   6.08027900  6.23293560 12.66972197
  12.36868394  6.22729259 12.73880366
   6.08086305 12.45510367 12.66933106
  12.36809990  0.00512452 12.73919458
   5.75287816  6.23638212  3.09091423
  12.04145106  6.22367572  3.16000816
   5.75363017 12.45148681  3.09053556
  12.04069905  0.00857104  3.16038683
   5.82273770  6.22276229  9.46461908
  12.11100222  6.23738460  9.53372394
   5.82198569  0.00765760  9.46499775
  12.11175423 12.45248928  9.53334527
   5.70805781  3.11498117  0.21102887
  11.89424139  3.11594791  0.28363601
   5.60642049  9.34375899  0.21416341
  11.99707434  9.34470816  0.27975506
   5.67552803  3.11503448  6.58824693
  12.06618188  3.11598364  6.65383858
   5.77836098  9.34379473  6.58436598
  11.96454456  9.34476147  6.65697312
   2.78364618  6.28730218  5.90917638
   9.07207773  6.17204046  5.97815885
   2.78425684 12.39985155  5.90868625
   9.07146708  0.05949109  5.97864898
   2.85336437  6.17112703 12.28276977
   9.14177025  6.28830465 12.35198608
   2.85275372  0.05857766 12.28325989
   9.14238090 12.40085403 12.35149596
 
 Euler angles ALPHA=     0.0000000  BETA=     0.0000000

 transformation matrix from SAXIS to cartesian coordinates
 ---------------------------------------------------------
     1.0000000 m_x     0.0000000 m_y     0.0000000 m_z
     0.0000000 m_x     1.0000000 m_y     0.0000000 m_z
     0.0000000 m_x     0.0000000 m_y     1.0000000 m_z

 transformation matrix from cartesian coordinates to SAXIS
 ---------------------------------------------------------
     1.0000000 m_x     0.0000000 m_y     0.0000000 m_z
     0.0000000 m_x     1.0000000 m_y     0.0000000 m_z
     0.0000000 m_x     0.0000000 m_y     1.0000000 m_z




--------------------------------------------------------------------------------------------------------


 k-point  1 :   0.0000 0.0000 0.0000  plane waves:  168014
 k-point  2 :   0.3333-0.0000-0.0000  plane waves:  168006
 k-point  3 :  -0.3333 0.0000 0.0000  plane waves:  168006
 k-point  4 :   0.0000 0.3333-0.0000  plane waves:  167990
 k-point  5 :   0.3333 0.3333 0.0000  plane waves:  168036
 k-point  6 :  -0.3333 0.3333 0.0000  plane waves:  168038
 k-point  7 :  -0.0000-0.3333 0.0000  plane waves:  167990
 k-point  8 :   0.3333-0.3333-0.0000  plane waves:  168038
 k-point  9 :  -0.3333-0.3333-0.0000  plane waves:  168036
 k-point 10 :   0.0000 0.0000 0.3333  plane waves:  167920
 k-point 11 :   0.3333 0.0000 0.3333  plane waves:  167874
 k-point 12 :  -0.3333 0.0000 0.3333  plane waves:  167964
 k-point 13 :   0.0000 0.3333 0.3333  plane waves:  167968
 k-point 14 :   0.3333 0.3333 0.3333  plane waves:  168024
 k-point 15 :  -0.3333 0.3333 0.3333  plane waves:  167940
 k-point 16 :   0.0000-0.3333 0.3333  plane waves:  167954
 k-point 17 :   0.3333-0.3333 0.3333  plane waves:  168026
 k-point 18 :  -0.3333-0.3333 0.3333  plane waves:  167946
 k-point 19 :   0.0000 0.0000-0.3333  plane waves:  167920
 k-point 20 :   0.3333-0.0000-0.3333  plane waves:  167964
 k-point 21 :  -0.3333-0.0000-0.3333  plane waves:  167874
 k-point 22 :  -0.0000 0.3333-0.3333  plane waves:  167954
 k-point 23 :   0.3333 0.3333-0.3333  plane waves:  167946
 k-point 24 :  -0.3333 0.3333-0.3333  plane waves:  168026
 k-point 25 :  -0.0000-0.3333-0.3333  plane waves:  167968
 k-point 26 :   0.3333-0.3333-0.3333  plane waves:  167940
 k-point 27 :  -0.3333-0.3333-0.3333  plane waves:  168024

 maximum and minimum number of plane-waves per node :      7122     6820

 maximum number of plane-waves:    168038
 maximum index in each direction: 
   IXMAX=   27   IYMAX=   27   IZMAX=   27
   IXMIN=  -27   IYMIN=  -27   IZMIN=  -27

 NGX is ok and might be reduce to 110
 WARNING: aliasing errors must be expected set NGY to 110 to avoid them
 NGZ is ok and might be reduce to 110
 aliasing errors are usually negligible using standard VASP settings
 and one can safely disregard these warnings

 parallel 3D FFT for wavefunctions:
    minimum data exchange during FFTs selected (reduces bandwidth)
 parallel 3D FFT for charge:
    minimum data exchange during FFTs selected (reduces bandwidth)


 total amount of memory used by VASP on root node   392927. kBytes
========================================================================

   base      :      30000. kBytes
   nonl-proj :      73667. kBytes
   fftplans  :      22714. kBytes
   grid      :      35610. kBytes
   one-center:        248. kBytes
   wavefun   :     230688. kBytes
 
     INWAV:  cpu time    0.0000: real time    0.0000
 Broyden mixing: mesh for mixing (old mesh)
   NGX = 55   NGY = 53   NGZ = 55
  (NGX  =224   NGY  =216   NGZ  =224)
  gives a total of 160325 points

 initial charge density was supplied:
 charge density of overlapping atoms calculated
 number of electron     400.0000000 magnetization      96.0000000     96.0000000     96.0000000
 keeping initial charge density in first step


--------------------------------------------------------------------------------------------------------


 Maximum index for augmentation-charges         5231 (set IRDMAX)


--------------------------------------------------------------------------------------------------------


 First call to EWALD:  gamma=   0.141
 Maximum number of real-space cells 3x 3x 3
 Maximum number of reciprocal cells 3x 3x 3

 FEWALD executed in parallel
    FEWALD:  cpu time    0.0080: real time    0.0068


----------------------------------------- Iteration    1(   1)  ---------------------------------------


    POTLOK:  cpu time    0.5960: real time    0.5992
    SETDIJ:  cpu time    2.1561: real time    2.1547
     EDDAV:  cpu time  237.1068: real time  237.2664
       DOS:  cpu time    0.0040: real time    0.0074
    --------------------------------------------
      LOOP:  cpu time  239.8670: real time  240.0352

 eigenvalue-minimisations  : 32544
 total energy-change (2. order) : 0.4233980E+04  (-0.1930878E+05)
 number of electron     400.0000000 magnetization      96.0000000     96.0000000     96.0000000
 augmentation part      400.0000000 magnetization      96.0000000     96.0000000     96.0000000

 Free energy of the ion-electron system (eV)
  ---------------------------------------------------
  alpha Z        PSCENC =       370.05370877
  Ewald energy   TEWEN  =    -15505.68014081
  -Hartree energ DENC   =     -8138.79243038
  -exchange      EXHF   =         0.00000000
  -V(xc)+E(xc)   XCENC  =       674.26672278
  PAW double counting   =     20172.90621935   -19413.33347658
  entropy T*S    EENTRO =        -0.00002175
  eigenvalues    EBANDS =      1325.55280340
  atomic energy  EATOM  =     24749.00668030
  Solvation  Ediel_sol  =         0.00000000
  ---------------------------------------------------
  free energy    TOTEN  =      4233.98006508 eV

  energy without entropy =     4233.98008682  energy(sigma->0) =     4233.98007595


--------------------------------------------------------------------------------------------------------




----------------------------------------- Iteration    1(   2)  ---------------------------------------


     EDDAV:  cpu time  253.7639: real time  253.9350
       DOS:  cpu time    0.0080: real time    0.0066
    --------------------------------------------
      LOOP:  cpu time  253.7759: real time  253.9831

 eigenvalue-minimisations  : 35616
 total energy-change (2. order) :-0.3388076E+04  (-0.3138176E+04)
 number of electron     400.0000000 magnetization      96.0000000     96.0000000     96.0000000
 augmentation part      400.0000000 magnetization      96.0000000     96.0000000     96.0000000

 Free energy of the ion-electron system (eV)
  ---------------------------------------------------
  alpha Z        PSCENC =       370.05370877
  Ewald energy   TEWEN  =    -15505.68014081
  -Hartree energ DENC   =     -8138.79243038
  -exchange      EXHF   =         0.00000000
  -V(xc)+E(xc)   XCENC  =       674.26672278
  PAW double counting   =     20172.90621935   -19413.33347658
  entropy T*S    EENTRO =        -0.00000018
  eigenvalues    EBANDS =     -2062.52285027
  atomic energy  EATOM  =     24749.00668030
  Solvation  Ediel_sol  =         0.00000000
  ---------------------------------------------------
  free energy    TOTEN  =       845.90443297 eV

  energy without entropy =      845.90443315  energy(sigma->0) =      845.90443306


--------------------------------------------------------------------------------------------------------




----------------------------------------- Iteration    1(   3)  ---------------------------------------


     EDDAV:  cpu time  298.5507: real time  298.7521
       DOS:  cpu time    0.0080: real time    0.0071
    --------------------------------------------
      LOOP:  cpu time  298.5587: real time  298.8840

 eigenvalue-minimisations  : 43968
 total energy-change (2. order) :-0.6104117E+03  (-0.5900839E+03)
 number of electron     400.0000000 magnetization      96.0000000     96.0000000     96.0000000
 augmentation part      400.0000000 magnetization      96.0000000     96.0000000     96.0000000

 Free energy of the ion-electron system (eV)
  ---------------------------------------------------
  alpha Z        PSCENC =       370.05370877
  Ewald energy   TEWEN  =    -15505.68014081
  -Hartree energ DENC   =     -8138.79243038
  -exchange      EXHF   =         0.00000000
  -V(xc)+E(xc)   XCENC  =       674.26672278
  PAW double counting   =     20172.90621935   -19413.33347658
  entropy T*S    EENTRO =        -0.00002489
  eigenvalues    EBANDS =     -2672.93451771
  atomic energy  EATOM  =     24749.00668030
  Solvation  Ediel_sol  =         0.00000000
  ---------------------------------------------------
  free energy    TOTEN  =       235.49274082 eV

  energy without entropy =      235.49276571  energy(sigma->0) =      235.49275327


--------------------------------------------------------------------------------------------------------




----------------------------------------- Iteration    1(   4)  ---------------------------------------


     EDDAV:  cpu time  299.3827: real time  299.5846
       DOS:  cpu time    0.0080: real time    0.0070
    --------------------------------------------
      LOOP:  cpu time  299.3947: real time  299.6164

 eigenvalue-minimisations  : 44072
 total energy-change (2. order) :-0.4579973E+02  (-0.4474256E+02)
 number of electron     400.0000000 magnetization      96.0000000     96.0000000     96.0000000
 augmentation part      400.0000000 magnetization      96.0000000     96.0000000     96.0000000

 Free energy of the ion-electron system (eV)
  ---------------------------------------------------
  alpha Z        PSCENC =       370.05370877
  Ewald energy   TEWEN  =    -15505.68014081
  -Hartree energ DENC   =     -8138.79243038
  -exchange      EXHF   =         0.00000000
  -V(xc)+E(xc)   XCENC  =       674.26672278
  PAW double counting   =     20172.90621935   -19413.33347658
  entropy T*S    EENTRO =        -0.00020086
  eigenvalues    EBANDS =     -2718.73407572
  atomic energy  EATOM  =     24749.00668030
  Solvation  Ediel_sol  =         0.00000000
  ---------------------------------------------------
  free energy    TOTEN  =       189.69300684 eV

  energy without entropy =      189.69320770  energy(sigma->0) =      189.69310727


--------------------------------------------------------------------------------------------------------




----------------------------------------- Iteration    1(   5)  ---------------------------------------


     EDDAV:  cpu time  332.8968: real time  333.1207
       DOS:  cpu time    0.0080: real time    0.0076
    CHARGE:  cpu time   11.7487: real time   11.7555
    MIXING:  cpu time    0.0160: real time    0.0152
    --------------------------------------------
      LOOP:  cpu time  344.6695: real time  344.9684

 eigenvalue-minimisations  : 50328
 total energy-change (2. order) :-0.2308401E+01  (-0.2296206E+01)
 number of electron     400.0000000 magnetization      67.0886368     67.0860445     67.0870388
 augmentation part        7.0111471 magnetization      63.4787945     63.4853655     63.4821971

 Broyden mixing:
  rms(total) = 0.98220E+01    rms(broyden)= 0.98218E+01
  rms(prec ) = 0.10323E+02
  weight for this iteration     100.00

 Free energy of the ion-electron system (eV)
  ---------------------------------------------------
  alpha Z        PSCENC =       370.05370877
  Ewald energy   TEWEN  =    -15505.68014081
  -Hartree energ DENC   =     -8138.79243038
  -exchange      EXHF   =         0.00000000
  -V(xc)+E(xc)   XCENC  =       674.26672278
  PAW double counting   =     20172.90621935   -19413.33347658
  entropy T*S    EENTRO =        -0.00031895
  eigenvalues    EBANDS =     -2721.04235870
  atomic energy  EATOM  =     24749.00668030
  Solvation  Ediel_sol  =         0.00000000
  ---------------------------------------------------
  free energy    TOTEN  =       187.38460577 eV

  energy without entropy =      187.38492472  energy(sigma->0) =      187.38476524


--------------------------------------------------------------------------------------------------------




----------------------------------------- Iteration    1(   6)  ---------------------------------------


    POTLOK:  cpu time    0.5880: real time    0.5862
    SETDIJ:  cpu time    2.1441: real time    2.1490
     EDDAV:  cpu time  260.8003: real time  260.9788
       DOS:  cpu time    0.0040: real time    0.0047
    CHARGE:  cpu time   11.8167: real time   11.8249
    MIXING:  cpu time    0.0160: real time    0.0149
    --------------------------------------------
      LOOP:  cpu time  275.3732: real time  275.9121

 eigenvalue-minimisations  : 37000
 total energy-change (2. order) :-0.1325513E+03  (-0.1530073E+03)
 number of electron     400.0000000 magnetization      50.2040743     50.2001283     50.2037141
 augmentation part        5.9387788 magnetization      50.9815703     50.9867110     50.9780943

 Broyden mixing:
  rms(total) = 0.48400E+01    rms(broyden)= 0.48399E+01
  rms(prec ) = 0.50231E+01
  weight for this iteration     100.00

 eigenvalues of (default mixing * dielectric matrix)
  average eigenvalue GAMMA=   0.7608
  0.7608

 Free energy of the ion-electron system (eV)
  ---------------------------------------------------
  alpha Z        PSCENC =       370.05370877
  Ewald energy   TEWEN  =    -15505.68014081
  -Hartree energ DENC   =     -8498.93398905
  -exchange      EXHF   =         0.00000000
  -V(xc)+E(xc)   XCENC  =       691.85297542
  PAW double counting   =     24217.94768983   -23481.08432298
  entropy T*S    EENTRO =        -0.00000000
  eigenvalues    EBANDS =     -2488.32929403
  atomic energy  EATOM  =     24749.00668030
  Solvation  Ediel_sol  =         0.00000000
  ---------------------------------------------------
  free energy    TOTEN  =        54.83330745 eV

  energy without entropy =       54.83330745  energy(sigma->0) =       54.83330745


--------------------------------------------------------------------------------------------------------




----------------------------------------- Iteration    1(   7)  ---------------------------------------


    POTLOK:  cpu time    0.5800: real time    0.5810
    SETDIJ:  cpu time    2.1521: real time    2.1560
     EDDAV:  cpu time  272.9771: real time  273.1598
       DOS:  cpu time    0.0080: real time    0.0078
    CHARGE:  cpu time   11.8367: real time   11.8464
    MIXING:  cpu time    0.0160: real time    0.0157
    --------------------------------------------
      LOOP:  cpu time  287.5740: real time  287.7880

 eigenvalue-minimisations  : 39152
 total energy-change (2. order) :-0.1495017E+03  (-0.1587755E+02)
 number of electron     400.0000000 magnetization      34.1119509     34.1051315     34.1149229
 augmentation part        5.6278376 magnetization      35.1447238     35.1521811     35.1349141

 Broyden mixing:
  rms(total) = 0.28262E+01    rms(broyden)= 0.28262E+01
  rms(prec ) = 0.29790E+01
  weight for this iteration     100.00

 eigenvalues of (default mixing * dielectric matrix)
  average eigenvalue GAMMA=   0.8443
  0.8443  0.8443

 Free energy of the ion-electron system (eV)
  ---------------------------------------------------
  alpha Z        PSCENC =       370.05370877
  Ewald energy   TEWEN  =    -15505.68014081
  -Hartree energ DENC   =     -8548.12800143
  -exchange      EXHF   =         0.00000000
  -V(xc)+E(xc)   XCENC  =       592.67357198
  PAW double counting   =     26677.37376688   -25940.70466935
  entropy T*S    EENTRO =        -0.00001667
  eigenvalues    EBANDS =     -2489.26331513
  atomic energy  EATOM  =     24749.00668030
  Solvation  Ediel_sol  =         0.00000000
  ---------------------------------------------------
  free energy    TOTEN  =       -94.66841546 eV

  energy without entropy =      -94.66839879  energy(sigma->0) =      -94.66840712


--------------------------------------------------------------------------------------------------------




----------------------------------------- Iteration    1(   8)  ---------------------------------------


    POTLOK:  cpu time    0.5960: real time    0.5951
    SETDIJ:  cpu time    2.1481: real time    2.1506
     EDDAV:  cpu time  263.8405: real time  264.0221
       DOS:  cpu time    0.0080: real time    0.0044
    CHARGE:  cpu time   11.8727: real time   11.8837
    MIXING:  cpu time    0.0160: real time    0.0160
    --------------------------------------------
      LOOP:  cpu time  278.4854: real time  278.6846

 eigenvalue-minimisations  : 37408
 total energy-change (2. order) :-0.1085998E+03  (-0.6413896E+01)
 number of electron     400.0000000 magnetization      15.5361075     15.5244003     15.5389642
 augmentation part        6.6870607 magnetization      16.6956197     16.7024895     16.6977677

 Broyden mixing:
  rms(total) = 0.18238E+01    rms(broyden)= 0.18238E+01
  rms(prec ) = 0.18781E+01
  weight for this iteration     100.00

 eigenvalues of (default mixing * dielectric matrix)
  average eigenvalue GAMMA=   1.0157
  1.4459  0.9686  0.6327

 Free energy of the ion-electron system (eV)
  ---------------------------------------------------
  alpha Z        PSCENC =       370.05370877
  Ewald energy   TEWEN  =    -15505.68014081
  -Hartree energ DENC   =     -8582.12508318
  -exchange      EXHF   =         0.00000000
  -V(xc)+E(xc)   XCENC  =       529.12074494
  PAW double counting   =     28714.93855313   -27980.36585789
  entropy T*S    EENTRO =        -0.00000000
  eigenvalues    EBANDS =     -2498.21681931
  atomic energy  EATOM  =     24749.00668030
  Solvation  Ediel_sol  =         0.00000000
  ---------------------------------------------------
  free energy    TOTEN  =      -203.26821405 eV

  energy without entropy =     -203.26821405  energy(sigma->0) =     -203.26821405


--------------------------------------------------------------------------------------------------------




----------------------------------------- Iteration    1(   9)  ---------------------------------------


    POTLOK:  cpu time    0.5960: real time    0.5954
    SETDIJ:  cpu time    2.1601: real time    2.1623
     EDDAV:  cpu time  260.7843: real time  260.9634
       DOS:  cpu time    0.0040: real time    0.0043
    CHARGE:  cpu time   11.8927: real time   11.9002
    MIXING:  cpu time    0.0160: real time    0.0165
    --------------------------------------------
      LOOP:  cpu time  275.4572: real time  275.6637

 eigenvalue-minimisations  : 36872
 total energy-change (2. order) :-0.1323370E+03  (-0.1242137E+02)
 number of electron     400.0000000 magnetization      10.2081677     10.1945604     10.2075391
 augmentation part        7.9466203 magnetization      11.0117986     11.0189938     11.0245405

 Broyden mixing:
  rms(total) = 0.90343E+00    rms(broyden)= 0.90342E+00
  rms(prec ) = 0.95579E+00
  weight for this iteration     100.00

 eigenvalues of (default mixing * dielectric matrix)
  average eigenvalue GAMMA=   1.0833
  1.8343  1.1022  0.6984  0.6984

 Free energy of the ion-electron system (eV)
  ---------------------------------------------------
  alpha Z        PSCENC =       370.05370877
  Ewald energy   TEWEN  =    -15505.68014081
  -Hartree energ DENC   =     -8613.91263215
  -exchange      EXHF   =         0.00000000
  -V(xc)+E(xc)   XCENC  =       463.16305793
  PAW double counting   =     30827.86504732   -30094.44052387
  entropy T*S    EENTRO =         0.00000000
  eigenvalues    EBANDS =     -2531.66045530
  atomic energy  EATOM  =     24749.00668030
  Solvation  Ediel_sol  =         0.00000000
  ---------------------------------------------------
  free energy    TOTEN  =      -335.60525782 eV

  energy without entropy =     -335.60525782  energy(sigma->0) =     -335.60525782


--------------------------------------------------------------------------------------------------------




----------------------------------------- Iteration    1(  10)  ---------------------------------------


    POTLOK:  cpu time    0.5880: real time    0.5892
    SETDIJ:  cpu time    2.1441: real time    2.1473
     EDDAV:  cpu time  264.0165: real time  264.1945
       DOS:  cpu time    0.0040: real time    0.0041
    CHARGE:  cpu time   11.8727: real time   11.8801
    MIXING:  cpu time    0.0160: real time    0.0170
    --------------------------------------------
      LOOP:  cpu time  278.6454: real time  278.8540

 eigenvalue-minimisations  : 37352
 total energy-change (2. order) :-0.4766695E+02  (-0.5093916E+01)
 number of electron     400.0000000 magnetization       6.4951226      6.4847869      6.4926650
 augmentation part        8.2601099 magnetization       7.0112168      7.0091076      7.0137600

 Broyden mixing:
  rms(total) = 0.66859E+00    rms(broyden)= 0.66859E+00
  rms(prec ) = 0.74674E+00
  weight for this iteration     100.00

 eigenvalues of (default mixing * dielectric matrix)
  average eigenvalue GAMMA=   1.1347
  1.6986  1.6986  0.8309  0.8309  0.6145

 Free energy of the ion-electron system (eV)
  ---------------------------------------------------
  alpha Z        PSCENC =       370.05370877
  Ewald energy   TEWEN  =    -15505.68014081
  -Hartree energ DENC   =     -8599.78674201
  -exchange      EXHF   =         0.00000000
  -V(xc)+E(xc)   XCENC  =       443.02193494
  PAW double counting   =     31161.41915611   -30426.43266536
  entropy T*S    EENTRO =         0.00000000
  eigenvalues    EBANDS =     -2574.87413634
  atomic energy  EATOM  =     24749.00668030
  Solvation  Ediel_sol  =         0.00000000
  ---------------------------------------------------
  free energy    TOTEN  =      -383.27220440 eV

  energy without entropy =     -383.27220440  energy(sigma->0) =     -383.27220440


--------------------------------------------------------------------------------------------------------




----------------------------------------- Iteration    1(  11)  ---------------------------------------


    POTLOK:  cpu time    0.5880: real time    0.5886
    SETDIJ:  cpu time    2.1681: real time    2.1714
     EDDAV:  cpu time  266.0486: real time  266.2289
       DOS:  cpu time    0.0040: real time    0.0041
    CHARGE:  cpu time   11.8607: real time   11.8698
    MIXING:  cpu time    0.0200: real time    0.0176
    --------------------------------------------
      LOOP:  cpu time  280.6935: real time  280.9019

 eigenvalue-minimisations  : 37848
 total energy-change (2. order) :-0.2591142E+02  (-0.3398577E+01)
 number of electron     400.0000000 magnetization       3.1153313      3.1088021      3.1129735
 augmentation part        8.1010997 magnetization       3.3467616      3.3423604      3.3448970

 Broyden mixing:
  rms(total) = 0.38492E+00    rms(broyden)= 0.38492E+00
  rms(prec ) = 0.43688E+00
  weight for this iteration     100.00

 eigenvalues of (default mixing * dielectric matrix)
  average eigenvalue GAMMA=   1.2039
  2.0415  2.0415  0.9511  0.9511  0.6610  0.5775

 Free energy of the ion-electron system (eV)
  ---------------------------------------------------
  alpha Z        PSCENC =       370.05370877
  Ewald energy   TEWEN  =    -15505.68014081
  -Hartree energ DENC   =     -8547.64255259
  -exchange      EXHF   =         0.00000000
  -V(xc)+E(xc)   XCENC  =       429.40481886
  PAW double counting   =     31080.03181456   -30341.71781499
  entropy T*S    EENTRO =         0.00000000
  eigenvalues    EBANDS =     -2642.64013406
  atomic energy  EATOM  =     24749.00668030
  Solvation  Ediel_sol  =         0.00000000
  ---------------------------------------------------
  free energy    TOTEN  =      -409.18361996 eV

  energy without entropy =     -409.18361996  energy(sigma->0) =     -409.18361996


--------------------------------------------------------------------------------------------------------




----------------------------------------- Iteration    1(  12)  ---------------------------------------


    POTLOK:  cpu time    0.5800: real time    0.5773
    SETDIJ:  cpu time    2.1481: real time    2.1505
     EDDAV:  cpu time  279.7695: real time  279.9610
       DOS:  cpu time    0.0040: real time    0.0044
    CHARGE:  cpu time   11.9047: real time   11.9122
    MIXING:  cpu time    0.0160: real time    0.0173
    --------------------------------------------
      LOOP:  cpu time  294.4224: real time  295.1374

 eigenvalue-minimisations  : 40480
 total energy-change (2. order) :-0.1202055E+02  (-0.1873406E+01)
 number of electron     400.0000000 magnetization       2.5528018      2.5475581      2.5511216
 augmentation part        7.9123769 magnetization       2.6154668      2.6098363      2.6127275

 Broyden mixing:
  rms(total) = 0.25704E+00    rms(broyden)= 0.25704E+00
  rms(prec ) = 0.29637E+00
  weight for this iteration     100.00

 eigenvalues of (default mixing * dielectric matrix)
  average eigenvalue GAMMA=   1.1547
  2.0785  2.0785  0.9874  0.9874  0.6759  0.6759  0.5992

 Free energy of the ion-electron system (eV)
  ---------------------------------------------------
  alpha Z        PSCENC =       370.05370877
  Ewald energy   TEWEN  =    -15505.68014081
  -Hartree energ DENC   =     -8499.89936762
  -exchange      EXHF   =         0.00000000
  -V(xc)+E(xc)   XCENC  =       422.75412978
  PAW double counting   =     30943.78480465   -30202.68915160
  entropy T*S    EENTRO =         0.00000000
  eigenvalues    EBANDS =     -2698.53482955
  atomic energy  EATOM  =     24749.00668030
  Solvation  Ediel_sol  =         0.00000000
  ---------------------------------------------------
  free energy    TOTEN  =      -421.20416608 eV

  energy without entropy =     -421.20416608  energy(sigma->0) =     -421.20416608


--------------------------------------------------------------------------------------------------------




----------------------------------------- Iteration    1(  13)  ---------------------------------------


    POTLOK:  cpu time    0.5760: real time    0.5797
    SETDIJ:  cpu time    2.1481: real time    2.1479
     EDDAV:  cpu time  278.3134: real time  278.5037
       DOS:  cpu time    0.0040: real time    0.0044
    CHARGE:  cpu time   11.9047: real time   11.9114
    MIXING:  cpu time    0.0160: real time    0.0175
    --------------------------------------------
      LOOP:  cpu time  292.9663: real time  293.1821

 eigenvalue-minimisations  : 40216
 total energy-change (2. order) :-0.1517863E+01  (-0.2336057E+00)
 number of electron     400.0000000 magnetization       1.7134731      1.7104991      1.7126345
 augmentation part        7.9100387 magnetization       1.7641291      1.7622375      1.7638094

 Broyden mixing:
  rms(total) = 0.20834E+00    rms(broyden)= 0.20833E+00
  rms(prec ) = 0.24467E+00
  weight for this iteration     100.00

 eigenvalues of (default mixing * dielectric matrix)
  average eigenvalue GAMMA=   1.1777
  2.1972  2.1972  1.0395  1.0395  0.8757  0.8757  0.6234  0.5736

 Free energy of the ion-electron system (eV)
  ---------------------------------------------------
  alpha Z        PSCENC =       370.05370877
  Ewald energy   TEWEN  =    -15505.68014081
  -Hartree energ DENC   =     -8488.37246659
[...]
     0.0000000     0.0000000     0.0000000     0.0000000     0.0000000     0.0000000     0.0000000
     0.0000000     0.0000000     0.0000000     0.0000000     0.0000000     0.0000000     0.0000000
     0.0000000     0.0000000     0.0000000     0.0000000     0.0000000     0.0000000     0.0000000
     0.0000000     0.0000000     0.0000000     0.0000000     0.0000000     0.0000000     0.0000000

 Ion:   82  E_soc:     -0.2795388
 l=   1
     0.0000000    -0.0483004    -0.0484871
    -0.0483004     0.0000000    -0.0430043
    -0.0484871    -0.0430043     0.0000000
 l=   2
     0.0000000    -0.0000103     0.0000000    -0.0000032     0.0000242
    -0.0000103     0.0000000     0.0000053    -0.0000025     0.0000133
     0.0000000     0.0000053     0.0000000    -0.0000033     0.0000000
    -0.0000032    -0.0000025    -0.0000033     0.0000000    -0.0000012
     0.0000242     0.0000133     0.0000000    -0.0000012     0.0000000
 l=   3
     0.0000000     0.0000000     0.0000000     0.0000000     0.0000000     0.0000000     0.0000000
     0.0000000     0.0000000     0.0000000     0.0000000     0.0000000     0.0000000     0.0000000
     0.0000000     0.0000000     0.0000000     0.0000000     0.0000000     0.0000000     0.0000000
     0.0000000     0.0000000     0.0000000     0.0000000     0.0000000     0.0000000     0.0000000
     0.0000000     0.0000000     0.0000000     0.0000000     0.0000000     0.0000000     0.0000000
     0.0000000     0.0000000     0.0000000     0.0000000     0.0000000     0.0000000     0.0000000
     0.0000000     0.0000000     0.0000000     0.0000000     0.0000000     0.0000000     0.0000000

 Ion:   83  E_soc:     -0.2795388
 l=   1
     0.0000000    -0.0483004    -0.0484871
    -0.0483004     0.0000000    -0.0430043
    -0.0484871    -0.0430043     0.0000000
 l=   2
     0.0000000    -0.0000103     0.0000000    -0.0000032     0.0000242
    -0.0000103     0.0000000     0.0000053    -0.0000025     0.0000133
     0.0000000     0.0000053     0.0000000    -0.0000033     0.0000000
    -0.0000032    -0.0000025    -0.0000033     0.0000000    -0.0000012
     0.0000242     0.0000133     0.0000000    -0.0000012     0.0000000
 l=   3
     0.0000000     0.0000000     0.0000000     0.0000000     0.0000000     0.0000000     0.0000000
     0.0000000     0.0000000     0.0000000     0.0000000     0.0000000     0.0000000     0.0000000
     0.0000000     0.0000000     0.0000000     0.0000000     0.0000000     0.0000000     0.0000000
     0.0000000     0.0000000     0.0000000     0.0000000     0.0000000     0.0000000     0.0000000
     0.0000000     0.0000000     0.0000000     0.0000000     0.0000000     0.0000000     0.0000000
     0.0000000     0.0000000     0.0000000     0.0000000     0.0000000     0.0000000     0.0000000
     0.0000000     0.0000000     0.0000000     0.0000000     0.0000000     0.0000000     0.0000000

 Ion:   84  E_soc:     -0.2799037
 l=   1
     0.0000000    -0.0484526    -0.0485597
    -0.0484526     0.0000000    -0.0429631
    -0.0485597    -0.0429631     0.0000000
 l=   2
     0.0000000    -0.0000105     0.0000000    -0.0000032     0.0000246
    -0.0000105     0.0000000     0.0000055    -0.0000025     0.0000139
     0.0000000     0.0000055     0.0000000    -0.0000033     0.0000000
    -0.0000032    -0.0000025    -0.0000033     0.0000000    -0.0000010
     0.0000246     0.0000139     0.0000000    -0.0000010     0.0000000
 l=   3
     0.0000000     0.0000000     0.0000000     0.0000000     0.0000000     0.0000000     0.0000000
     0.0000000     0.0000000     0.0000000     0.0000000     0.0000000     0.0000000     0.0000000
     0.0000000     0.0000000     0.0000000     0.0000000     0.0000000     0.0000000     0.0000000
     0.0000000     0.0000000     0.0000000     0.0000000     0.0000000     0.0000000     0.0000000
     0.0000000     0.0000000     0.0000000     0.0000000     0.0000000     0.0000000     0.0000000
     0.0000000     0.0000000     0.0000000     0.0000000     0.0000000     0.0000000     0.0000000
     0.0000000     0.0000000     0.0000000     0.0000000     0.0000000     0.0000000     0.0000000

 Ion:   85  E_soc:     -0.2795388
 l=   1
     0.0000000    -0.0483004    -0.0484871
    -0.0483004     0.0000000    -0.0430043
    -0.0484871    -0.0430043     0.0000000
 l=   2
     0.0000000    -0.0000103     0.0000000    -0.0000032     0.0000242
    -0.0000103     0.0000000     0.0000053    -0.0000025     0.0000133
     0.0000000     0.0000053     0.0000000    -0.0000033     0.0000000
    -0.0000032    -0.0000025    -0.0000033     0.0000000    -0.0000012
     0.0000242     0.0000133     0.0000000    -0.0000012     0.0000000
 l=   3
     0.0000000     0.0000000     0.0000000     0.0000000     0.0000000     0.0000000     0.0000000
     0.0000000     0.0000000     0.0000000     0.0000000     0.0000000     0.0000000     0.0000000
     0.0000000     0.0000000     0.0000000     0.0000000     0.0000000     0.0000000     0.0000000
     0.0000000     0.0000000     0.0000000     0.0000000     0.0000000     0.0000000     0.0000000
     0.0000000     0.0000000     0.0000000     0.0000000     0.0000000     0.0000000     0.0000000
     0.0000000     0.0000000     0.0000000     0.0000000     0.0000000     0.0000000     0.0000000
     0.0000000     0.0000000     0.0000000     0.0000000     0.0000000     0.0000000     0.0000000

 Ion:   86  E_soc:     -0.2799037
 l=   1
     0.0000000    -0.0484526    -0.0485597
    -0.0484526     0.0000000    -0.0429631
    -0.0485597    -0.0429631     0.0000000
 l=   2
     0.0000000    -0.0000105     0.0000000    -0.0000032     0.0000246
    -0.0000105     0.0000000     0.0000055    -0.0000025     0.0000139
     0.0000000     0.0000055     0.0000000    -0.0000033     0.0000000
    -0.0000032    -0.0000025    -0.0000033     0.0000000    -0.0000010
     0.0000246     0.0000139     0.0000000    -0.0000010     0.0000000
 l=   3
     0.0000000     0.0000000     0.0000000     0.0000000     0.0000000     0.0000000     0.0000000
     0.0000000     0.0000000     0.0000000     0.0000000     0.0000000     0.0000000     0.0000000
     0.0000000     0.0000000     0.0000000     0.0000000     0.0000000     0.0000000     0.0000000
     0.0000000     0.0000000     0.0000000     0.0000000     0.0000000     0.0000000     0.0000000
     0.0000000     0.0000000     0.0000000     0.0000000     0.0000000     0.0000000     0.0000000
     0.0000000     0.0000000     0.0000000     0.0000000     0.0000000     0.0000000     0.0000000
     0.0000000     0.0000000     0.0000000     0.0000000     0.0000000     0.0000000     0.0000000

 Ion:   87  E_soc:     -0.2799037
 l=   1
     0.0000000    -0.0484526    -0.0485597
    -0.0484526     0.0000000    -0.0429631
    -0.0485597    -0.0429631     0.0000000
 l=   2
     0.0000000    -0.0000105     0.0000000    -0.0000032     0.0000246
    -0.0000105     0.0000000     0.0000055    -0.0000025     0.0000139
     0.0000000     0.0000055     0.0000000    -0.0000033     0.0000000
    -0.0000032    -0.0000025    -0.0000033     0.0000000    -0.0000010
     0.0000246     0.0000139     0.0000000    -0.0000010     0.0000000
 l=   3
     0.0000000     0.0000000     0.0000000     0.0000000     0.0000000     0.0000000     0.0000000
     0.0000000     0.0000000     0.0000000     0.0000000     0.0000000     0.0000000     0.0000000
     0.0000000     0.0000000     0.0000000     0.0000000     0.0000000     0.0000000     0.0000000
     0.0000000     0.0000000     0.0000000     0.0000000     0.0000000     0.0000000     0.0000000
     0.0000000     0.0000000     0.0000000     0.0000000     0.0000000     0.0000000     0.0000000
     0.0000000     0.0000000     0.0000000     0.0000000     0.0000000     0.0000000     0.0000000
     0.0000000     0.0000000     0.0000000     0.0000000     0.0000000     0.0000000     0.0000000

 Ion:   88  E_soc:     -0.2795388
 l=   1
     0.0000000    -0.0483004    -0.0484871
    -0.0483004     0.0000000    -0.0430043
    -0.0484871    -0.0430043     0.0000000
 l=   2
     0.0000000    -0.0000103     0.0000000    -0.0000032     0.0000242
    -0.0000103     0.0000000     0.0000053    -0.0000025     0.0000133
     0.0000000     0.0000053     0.0000000    -0.0000033     0.0000000
    -0.0000032    -0.0000025    -0.0000033     0.0000000    -0.0000012
     0.0000242     0.0000133     0.0000000    -0.0000012     0.0000000
 l=   3
     0.0000000     0.0000000     0.0000000     0.0000000     0.0000000     0.0000000     0.0000000
     0.0000000     0.0000000     0.0000000     0.0000000     0.0000000     0.0000000     0.0000000
     0.0000000     0.0000000     0.0000000     0.0000000     0.0000000     0.0000000     0.0000000
     0.0000000     0.0000000     0.0000000     0.0000000     0.0000000     0.0000000     0.0000000
     0.0000000     0.0000000     0.0000000     0.0000000     0.0000000     0.0000000     0.0000000
     0.0000000     0.0000000     0.0000000     0.0000000     0.0000000     0.0000000     0.0000000
     0.0000000     0.0000000     0.0000000     0.0000000     0.0000000     0.0000000     0.0000000

 Ion:   89  E_soc:     -0.2859688
 l=   1
     0.0000000    -0.0429563    -0.0495434
    -0.0429563     0.0000000    -0.0505078
    -0.0495434    -0.0505078     0.0000000
 l=   2
     0.0000000    -0.0000023     0.0000000    -0.0000086     0.0000209
    -0.0000023     0.0000000    -0.0000024    -0.0000025    -0.0000014
     0.0000000    -0.0000024     0.0000000     0.0000055     0.0000000
    -0.0000086    -0.0000025     0.0000055     0.0000000     0.0000138
     0.0000209    -0.0000014     0.0000000     0.0000138     0.0000000
 l=   3
     0.0000000     0.0000000     0.0000000     0.0000000     0.0000000     0.0000000     0.0000000
     0.0000000     0.0000000     0.0000000     0.0000000     0.0000000     0.0000000     0.0000000
     0.0000000     0.0000000     0.0000000     0.0000000     0.0000000     0.0000000     0.0000000
     0.0000000     0.0000000     0.0000000     0.0000000     0.0000000     0.0000000     0.0000000
     0.0000000     0.0000000     0.0000000     0.0000000     0.0000000     0.0000000     0.0000000
     0.0000000     0.0000000     0.0000000     0.0000000     0.0000000     0.0000000     0.0000000
     0.0000000     0.0000000     0.0000000     0.0000000     0.0000000     0.0000000     0.0000000

 Ion:   90  E_soc:     -0.2859663
 l=   1
     0.0000000    -0.0429564    -0.0495425
    -0.0429564     0.0000000    -0.0505073
    -0.0495425    -0.0505073     0.0000000
 l=   2
     0.0000000    -0.0000023     0.0000000    -0.0000086     0.0000209
    -0.0000023     0.0000000    -0.0000024    -0.0000025    -0.0000014
     0.0000000    -0.0000024     0.0000000     0.0000055     0.0000000
    -0.0000086    -0.0000025     0.0000055     0.0000000     0.0000138
     0.0000209    -0.0000014     0.0000000     0.0000138     0.0000000
 l=   3
     0.0000000     0.0000000     0.0000000     0.0000000     0.0000000     0.0000000     0.0000000
     0.0000000     0.0000000     0.0000000     0.0000000     0.0000000     0.0000000     0.0000000
     0.0000000     0.0000000     0.0000000     0.0000000     0.0000000     0.0000000     0.0000000
     0.0000000     0.0000000     0.0000000     0.0000000     0.0000000     0.0000000     0.0000000
     0.0000000     0.0000000     0.0000000     0.0000000     0.0000000     0.0000000     0.0000000
     0.0000000     0.0000000     0.0000000     0.0000000     0.0000000     0.0000000     0.0000000
     0.0000000     0.0000000     0.0000000     0.0000000     0.0000000     0.0000000     0.0000000

 Ion:   91  E_soc:     -0.2859663
 l=   1
     0.0000000    -0.0429564    -0.0495425
    -0.0429564     0.0000000    -0.0505073
    -0.0495425    -0.0505073     0.0000000
 l=   2
     0.0000000    -0.0000023     0.0000000    -0.0000086     0.0000209
    -0.0000023     0.0000000    -0.0000024    -0.0000025    -0.0000014
     0.0000000    -0.0000024     0.0000000     0.0000055     0.0000000
    -0.0000086    -0.0000025     0.0000055     0.0000000     0.0000138
     0.0000209    -0.0000014     0.0000000     0.0000138     0.0000000
 l=   3
     0.0000000     0.0000000     0.0000000     0.0000000     0.0000000     0.0000000     0.0000000
     0.0000000     0.0000000     0.0000000     0.0000000     0.0000000     0.0000000     0.0000000
     0.0000000     0.0000000     0.0000000     0.0000000     0.0000000     0.0000000     0.0000000
     0.0000000     0.0000000     0.0000000     0.0000000     0.0000000     0.0000000     0.0000000
     0.0000000     0.0000000     0.0000000     0.0000000     0.0000000     0.0000000     0.0000000
     0.0000000     0.0000000     0.0000000     0.0000000     0.0000000     0.0000000     0.0000000
     0.0000000     0.0000000     0.0000000     0.0000000     0.0000000     0.0000000     0.0000000

 Ion:   92  E_soc:     -0.2859688
 l=   1
     0.0000000    -0.0429563    -0.0495434
    -0.0429563     0.0000000    -0.0505078
    -0.0495434    -0.0505078     0.0000000
 l=   2
     0.0000000    -0.0000023     0.0000000    -0.0000086     0.0000209
    -0.0000023     0.0000000    -0.0000024    -0.0000025    -0.0000014
     0.0000000    -0.0000024     0.0000000     0.0000055     0.0000000
    -0.0000086    -0.0000025     0.0000055     0.0000000     0.0000138
     0.0000209    -0.0000014     0.0000000     0.0000138     0.0000000
 l=   3
     0.0000000     0.0000000     0.0000000     0.0000000     0.0000000     0.0000000     0.0000000
     0.0000000     0.0000000     0.0000000     0.0000000     0.0000000     0.0000000     0.0000000
     0.0000000     0.0000000     0.0000000     0.0000000     0.0000000     0.0000000     0.0000000
     0.0000000     0.0000000     0.0000000     0.0000000     0.0000000     0.0000000     0.0000000
     0.0000000     0.0000000     0.0000000     0.0000000     0.0000000     0.0000000     0.0000000
     0.0000000     0.0000000     0.0000000     0.0000000     0.0000000     0.0000000     0.0000000
     0.0000000     0.0000000     0.0000000     0.0000000     0.0000000     0.0000000     0.0000000

 Ion:   93  E_soc:     -0.2859663
 l=   1
     0.0000000    -0.0429564    -0.0495425
    -0.0429564     0.0000000    -0.0505073
    -0.0495425    -0.0505073     0.0000000
 l=   2
     0.0000000    -0.0000023     0.0000000    -0.0000086     0.0000209
    -0.0000023     0.0000000    -0.0000024    -0.0000025    -0.0000014
     0.0000000    -0.0000024     0.0000000     0.0000055     0.0000000
    -0.0000086    -0.0000025     0.0000055     0.0000000     0.0000138
     0.0000209    -0.0000014     0.0000000     0.0000138     0.0000000
 l=   3
     0.0000000     0.0000000     0.0000000     0.0000000     0.0000000     0.0000000     0.0000000
     0.0000000     0.0000000     0.0000000     0.0000000     0.0000000     0.0000000     0.0000000
     0.0000000     0.0000000     0.0000000     0.0000000     0.0000000     0.0000000     0.0000000
     0.0000000     0.0000000     0.0000000     0.0000000     0.0000000     0.0000000     0.0000000
     0.0000000     0.0000000     0.0000000     0.0000000     0.0000000     0.0000000     0.0000000
     0.0000000     0.0000000     0.0000000     0.0000000     0.0000000     0.0000000     0.0000000
     0.0000000     0.0000000     0.0000000     0.0000000     0.0000000     0.0000000     0.0000000

 Ion:   94  E_soc:     -0.2859688
 l=   1
     0.0000000    -0.0429563    -0.0495434
    -0.0429563     0.0000000    -0.0505078
    -0.0495434    -0.0505078     0.0000000
 l=   2
     0.0000000    -0.0000023     0.0000000    -0.0000086     0.0000209
    -0.0000023     0.0000000    -0.0000024    -0.0000025    -0.0000014
     0.0000000    -0.0000024     0.0000000     0.0000055     0.0000000
    -0.0000086    -0.0000025     0.0000055     0.0000000     0.0000138
     0.0000209    -0.0000014     0.0000000     0.0000138     0.0000000
 l=   3
     0.0000000     0.0000000     0.0000000     0.0000000     0.0000000     0.0000000     0.0000000
     0.0000000     0.0000000     0.0000000     0.0000000     0.0000000     0.0000000     0.0000000
     0.0000000     0.0000000     0.0000000     0.0000000     0.0000000     0.0000000     0.0000000
     0.0000000     0.0000000     0.0000000     0.0000000     0.0000000     0.0000000     0.0000000
     0.0000000     0.0000000     0.0000000     0.0000000     0.0000000     0.0000000     0.0000000
     0.0000000     0.0000000     0.0000000     0.0000000     0.0000000     0.0000000     0.0000000
     0.0000000     0.0000000     0.0000000     0.0000000     0.0000000     0.0000000     0.0000000

 Ion:   95  E_soc:     -0.2859688
 l=   1
     0.0000000    -0.0429563    -0.0495434
    -0.0429563     0.0000000    -0.0505078
    -0.0495434    -0.0505078     0.0000000
 l=   2
     0.0000000    -0.0000023     0.0000000    -0.0000086     0.0000209
    -0.0000023     0.0000000    -0.0000024    -0.0000025    -0.0000014
     0.0000000    -0.0000024     0.0000000     0.0000055     0.0000000
    -0.0000086    -0.0000025     0.0000055     0.0000000     0.0000138
     0.0000209    -0.0000014     0.0000000     0.0000138     0.0000000
 l=   3
     0.0000000     0.0000000     0.0000000     0.0000000     0.0000000     0.0000000     0.0000000
     0.0000000     0.0000000     0.0000000     0.0000000     0.0000000     0.0000000     0.0000000
     0.0000000     0.0000000     0.0000000     0.0000000     0.0000000     0.0000000     0.0000000
     0.0000000     0.0000000     0.0000000     0.0000000     0.0000000     0.0000000     0.0000000
     0.0000000     0.0000000     0.0000000     0.0000000     0.0000000     0.0000000     0.0000000
     0.0000000     0.0000000     0.0000000     0.0000000     0.0000000     0.0000000     0.0000000
     0.0000000     0.0000000     0.0000000     0.0000000     0.0000000     0.0000000     0.0000000

 Ion:   96  E_soc:     -0.2859663
 l=   1
     0.0000000    -0.0429564    -0.0495425
    -0.0429564     0.0000000    -0.0505073
    -0.0495425    -0.0505073     0.0000000
 l=   2
     0.0000000    -0.0000023     0.0000000    -0.0000086     0.0000209
    -0.0000023     0.0000000    -0.0000024    -0.0000025    -0.0000014
     0.0000000    -0.0000024     0.0000000     0.0000055     0.0000000
    -0.0000086    -0.0000025     0.0000055     0.0000000     0.0000138
     0.0000209    -0.0000014     0.0000000     0.0000138     0.0000000
 l=   3
     0.0000000     0.0000000     0.0000000     0.0000000     0.0000000     0.0000000     0.0000000
     0.0000000     0.0000000     0.0000000     0.0000000     0.0000000     0.0000000     0.0000000
     0.0000000     0.0000000     0.0000000     0.0000000     0.0000000     0.0000000     0.0000000
     0.0000000     0.0000000     0.0000000     0.0000000     0.0000000     0.0000000     0.0000000
     0.0000000     0.0000000     0.0000000     0.0000000     0.0000000     0.0000000     0.0000000
     0.0000000     0.0000000     0.0000000     0.0000000     0.0000000     0.0000000     0.0000000
     0.0000000     0.0000000     0.0000000     0.0000000     0.0000000     0.0000000     0.0000000

 total amount of memory used by VASP on root node   392927. kBytes
========================================================================

   base      :      30000. kBytes
   nonl-proj :      73667. kBytes
   fftplans  :      22714. kBytes
   grid      :      35610. kBytes
   one-center:        248. kBytes
   wavefun   :     230688. kBytes
 
  
  
 General timing and accounting informations for this job:
 ========================================================
  
                  Total CPU time used (sec):     8715.385
                            User time (sec):     8701.392
                          System time (sec):       13.993
                         Elapsed time (sec):     8728.329
  
                   Maximum memory used (kb):      412436.
                   Average memory used (kb):           0.
  
                          Minor page faults:       593825
                          Major page faults:            0
                 Voluntary context switches:        17296
