 running on  192 total cores
 distrk:  each k-point on  192 cores,    1 groups
 distr:  one band on   24 cores,    8 groups
 using from now: INCAR     
 vasp.5.4.1 24Jun15 (build Nov 25 2015 16:39:35) complex                        
  
 POSCAR found type information on POSCAR  C  N  H  Pb I 
 POSCAR found :  5 types and      96 ions
 scaLAPACK will be used

 ----------------------------------------------------------------------------- 
|                                                                             |
|  ADVICE TO THIS USER RUNNING 'VASP/VAMP'   (HEAR YOUR MASTER'S VOICE ...):  |
|                                                                             |
|      You have a (more or less) 'large supercell' and for larger cells       |
|      it might be more efficient to use real space projection opertators     |
|      So try LREAL= Auto  in the INCAR   file.                               |
|      Mind: At the moment your POTCAR file does not contain real space       |
|       projectors, and has to be modified,  BUT if you                       |
|      want to do an extremely  accurate calculation you might also keep the  |
|      reciprocal projection scheme          (i.e. LREAL=.FALSE.)             |
|                                                                             |
 ----------------------------------------------------------------------------- 


 ----------------------------------------------------------------------------- 
|                                                                             |
|  ADVICE TO THIS USER RUNNING 'VASP/VAMP'   (HEAR YOUR MASTER'S VOICE ...):  |
|                                                                             |
|      You enforced a specific xc-type in the INCAR file,                     |
|      a different type was found on the POTCAR file                          |
|          I HOPE YOU KNOW, WHAT YOU ARE  DOING                               |
|                                                                             |
 ----------------------------------------------------------------------------- 

 LDA part: xc-table for Pade appr. of Perdew
 POSCAR, INCAR and KPOINTS ok, starting setup
 WARNING: small aliasing (wrap around) errors must be expected
 FFT: planning ...
 WAVECAR not read
 entering main loop
       N       E                     dE             d eps       ncg     rms          rms(c)
DAV:   1     0.423398006508E+04    0.42340E+04   -0.19309E+05 32544   0.146E+03
DAV:   2     0.845904432970E+03   -0.33881E+04   -0.31382E+04 35616   0.322E+02
DAV:   3     0.235492740823E+03   -0.61041E+03   -0.59008E+03 43968   0.157E+02
DAV:   4     0.189693006839E+03   -0.45800E+02   -0.44743E+02 44072   0.438E+01
DAV:   5     0.187384605766E+03   -0.23084E+01   -0.22962E+01 50328   0.100E+01    0.982E+01
DAV:   6     0.548333074542E+02   -0.13255E+03   -0.15301E+03 37000   0.503E+01    0.484E+01
DAV:   7    -0.946684154559E+02   -0.14950E+03   -0.15878E+02 39152   0.215E+01    0.283E+01
DAV:   8    -0.203268214053E+03   -0.10860E+03   -0.64139E+01 37408   0.130E+01    0.182E+01
DAV:   9    -0.335605257823E+03   -0.13234E+03   -0.12421E+02 36872   0.162E+01    0.903E+00
DAV:  10    -0.383272204403E+03   -0.47667E+02   -0.50939E+01 37352   0.102E+01    0.669E+00
DAV:  11    -0.409183619965E+03   -0.25911E+02   -0.33986E+01 37848   0.796E+00    0.385E+00
DAV:  12    -0.421204166082E+03   -0.12021E+02   -0.18734E+01 40480   0.552E+00    0.257E+00
DAV:  13    -0.422722029324E+03   -0.15179E+01   -0.23361E+00 40216   0.259E+00    0.208E+00
DAV:  14    -0.423464601163E+03   -0.74257E+00   -0.98513E-01 38264   0.137E+00    0.120E+00
DAV:  15    -0.423520988895E+03   -0.56388E-01   -0.18574E-01 42600   0.724E-01    0.610E-01
DAV:  16    -0.423528220125E+03   -0.72312E-02   -0.33762E-02 40712   0.327E-01    0.380E-01
DAV:  17    -0.423531382305E+03   -0.31622E-02   -0.10236E-02 39200   0.172E-01    0.222E-01
DAV:  18    -0.423533264309E+03   -0.18820E-02   -0.23771E-03 39712   0.895E-02    0.839E-02
DAV:  19    -0.423533654265E+03   -0.38996E-03   -0.56233E-04 42072   0.471E-02    0.466E-02
DAV:  20    -0.423533887237E+03   -0.23297E-03   -0.22565E-04 38448   0.267E-02    0.283E-02
DAV:  21    -0.423534022615E+03   -0.13538E-03   -0.13257E-04 38328   0.191E-02    0.138E-02
DAV:  22    -0.423534033410E+03   -0.10795E-04   -0.16420E-05 43552   0.781E-03    0.957E-03
DAV:  23    -0.423534034666E+03   -0.12565E-05   -0.61444E-06 38040   0.381E-03    0.397E-03
DAV:  24    -0.423534037140E+03   -0.24736E-05   -0.24569E-06 34736   0.289E-03    0.211E-03
DAV:  25    -0.423534037290E+03   -0.15010E-06   -0.63455E-07 41944   0.139E-03    0.123E-03
DAV:  26    -0.423534037227E+03    0.63243E-07   -0.11289E-07 43632   0.701E-04    0.991E-04
DAV:  27    -0.423534037145E+03    0.81662E-07   -0.31112E-08 34776   0.411E-04    0.344E-04
DAV:  28    -0.423534037068E+03    0.77322E-07   -0.21964E-08 30568   0.316E-04    0.234E-04
DAV:  29    -0.423534037059E+03    0.83237E-08   -0.39396E-09 29176   0.156E-04
   1 F= -.42353404E+03 E0= -.42353404E+03  d E =0.000000E+00  mag=     0.0000     0.0000     0.0000
Application 22254243 resources: utime ~1671243s, stime ~2629s, Rss ~415756, inblocks ~2670121, outblocks ~3873424
