 vasp.5.4.1 24Jun15 (build Nov 25 2015 16:39:35) complex                        
  
 executed on         CrayXC-Intel date 2016.09.27  09:47:00
 running on   24 total cores
 distrk:  each k-point on   24 cores,    1 groups
 distr:  one band on NCORES_PER_BAND=  24 cores,    1 groups


--------------------------------------------------------------------------------------------------------


 INCAR:
 POTCAR:    PAW_PBE Cd 06Sep2000                  
 POTCAR:    PAW_PBE Te 08Apr2002                  

 ----------------------------------------------------------------------------- 
|                                                                             |
|           W    W    AA    RRRRR   N    N  II  N    N   GGGG   !!!           |
|           W    W   A  A   R    R  NN   N  II  NN   N  G    G  !!!           |
|           W    W  A    A  R    R  N N  N  II  N N  N  G       !!!           |
|           W WW W  AAAAAA  RRRRR   N  N N  II  N  N N  G  GGG   !            |
|           WW  WW  A    A  R   R   N   NN  II  N   NN  G    G                |
|           W    W  A    A  R    R  N    N  II  N    N   GGGG   !!!           |
|                                                                             |
|      For optimal performance we recommend to set                            |
|        NCORE= 4 - approx SQRT( number of cores)                             |
|      NCORE specifies how many cores store one orbital (NPAR=cpu/NCORE).     |
|      This setting can  greatly improve the performance of VASP for DFT.     |
|      The default, NPAR=number of cores might be grossly inefficient         |
|      on modern multi-core architectures or massively parallel machines.     |
|      Do your own testing !!!!                                               |
|      Unfortunately you need to use the default for GW and RPA calculations. |
|      (for HF NCORE is supported but not extensively tested yet)             |
|                                                                             |
 ----------------------------------------------------------------------------- 

 POTCAR:    PAW_PBE Cd 06Sep2000                  
   VRHFIN =Cd : s2 d10                                                          
   LEXCH  = PE                                                                  
   EATOM  =  1293.1815 eV,   95.0462 Ry                                         
                                                                                
   TITEL  = PAW_PBE Cd 06Sep2000                                                
   LULTRA =        F    use ultrasoft PP ?                                      
   IUNSCR =        1    unscreen: 0-lin 1-nonlin 2-no                           
   RPACOR =    2.000    partial core radius                                     
   POMASS =  112.411; ZVAL   =   12.000    mass and valenz                      
   RCORE  =    2.300    outmost cutoff radius                                   
   RWIGS  =    2.980; RWIGS  =    1.577    wigner-seitz radius (au A)           
   ENMAX  =  274.336; ENMIN  =  205.752 eV                                      
   RCLOC  =    2.054    cutoff for local pot                                    
   LCOR   =        T    correct aug charges                                     
   LPAW   =        T    paw PP                                                  
   EAUG   =  456.106                                                            
   DEXC   =    0.000                                                            
   RMAX   =    2.358    core radius for proj-oper                               
   RAUG   =    1.300    factor for augmentation sphere                          
   RDEP   =    2.450    radius for radial grids                                 
   RDEPT  =    1.955    core radius for aug-charge                              
                                                                                
   Atomic configuration                                                         
   12 entries                                                                   
     n  l   j            E        occ.                                          
     1  0  0.50    -26519.7817   2.0000                                         
     2  0  0.50     -3936.9612   2.0000                                         
     2  1  1.50     -3532.2230   6.0000                                         
     3  0  0.50      -733.7908   2.0000                                         
     3  1  1.50      -601.0792   6.0000                                         
     3  2  2.50      -393.5307  10.0000                                         
     4  0  0.50      -105.8977   2.0000                                         
     4  1  1.50       -66.9488   6.0000                                         
     4  2  2.50       -11.7331  10.0000                                         
     5  0  0.50        -5.6592   2.0000                                         
     5  1  0.50        -1.3606   0.0000                                         
     4  3  2.50        -1.3606   0.0000                                         
   Description                                                                  
     l       E           TYP  RCUT    TYP  RCUT                                 
     2    -11.7331479     23  2.300                                             
     2    -13.0937305     23  2.300                                             
     0     -5.6591502     23  2.300                                             
     0     -1.5561433     23  2.300                                             
     1     -2.7211652     23  2.300                                             
     1      8.3548275     23  2.300                                             
  local pseudopotential read in
  partial core-charges read in
  partial kinetic energy density read in
  atomic valenz-charges read in
  non local Contribution for L=           2  read in
    real space projection operators read in
  non local Contribution for L=           2  read in
    real space projection operators read in
  non local Contribution for L=           0  read in
    real space projection operators read in
  non local Contribution for L=           0  read in
    real space projection operators read in
  non local Contribution for L=           1  read in
    real space projection operators read in
  non local Contribution for L=           1  read in
    real space projection operators read in
    PAW grid and wavefunctions read in
 
   number of l-projection  operators is LMAX  =           6
   number of lm-projection operators is LMMAX =          18
 
 POTCAR:    PAW_PBE Te 08Apr2002                  
   VRHFIN =Te: s2p4                                                             
   LEXCH  = PE                                                                  
   EATOM  =   223.2721 eV,   16.4100 Ry                                         
                                                                                
   TITEL  = PAW_PBE Te 08Apr2002                                                
   LULTRA =        F    use ultrasoft PP ?                                      
   IUNSCR =        1    unscreen: 0-lin 1-nonlin 2-no                           
   RPACOR =    2.200    partial core radius                                     
   POMASS =  127.600; ZVAL   =    6.000    mass and valenz                      
   RCORE  =    2.300    outmost cutoff radius                                   
   RWIGS  =    2.900; RWIGS  =    1.535    wigner-seitz radius (au A)           
   ENMAX  =  174.982; ENMIN  =  131.236 eV                                      
   ICORE  =        3    local potential                                         
   LCOR   =        T    correct aug charges                                     
   LPAW   =        T    paw PP                                                  
   EAUG   =  368.792                                                            
   DEXC   =    0.000                                                            
   RMAX   =    2.345    core radius for proj-oper                               
   RAUG   =    1.300    factor for augmentation sphere                          
   RDEP   =    2.397    radius for radial grids                                 
   RDEPT  =    2.174    core radius for aug-charge                              
                                                                                
   Atomic configuration                                                         
   13 entries                                                                   
     n  l   j            E        occ.                                          
     1  0  0.50    -31621.2075   2.0000                                         
     2  0  0.50     -4848.7941   2.0000                                         
     2  1  1.50     -4352.1960   6.0000                                         
     3  0  0.50      -964.9612   2.0000                                         
     3  1  1.50      -803.6179   6.0000                                         
     3  2  2.50      -559.8710  10.0000                                         
     4  0  0.50      -164.3522   2.0000                                         
     4  1  1.50      -114.3756   6.0000                                         
     4  2  2.50       -41.6483  10.0000                                         
     5  0  0.50       -15.1072   2.0000                                         
     5  1  0.50        -5.9526   4.0000                                         
     5  2  1.50        -5.4423   0.0000                                         
     4  3  2.50        -5.4423   0.0000                                         
   Description                                                                  
     l       E           TYP  RCUT    TYP  RCUT                                 
     0    -15.1072389     23  2.300                                             
     0    -16.4678215     23  2.300                                             
     1     -5.9526306     23  2.300                                             
     1     -2.4873968     23  2.300                                             
     2     -5.4423304     23  2.300                                             
     3     -1.3605826     23  2.300                                             
  local pseudopotential read in
  partial core-charges read in
  partial kinetic energy density read in
  atomic valenz-charges read in
  non local Contribution for L=           0  read in
    real space projection operators read in
  non local Contribution for L=           0  read in
    real space projection operators read in
  non local Contribution for L=           1  read in
    real space projection operators read in
  non local Contribution for L=           1  read in
    real space projection operators read in
  non local Contribution for L=           2  read in
    real space projection operators read in
    PAW grid and wavefunctions read in
 
   number of l-projection  operators is LMAX  =           5
   number of lm-projection operators is LMMAX =          13
 
  PAW_PBE Cd 06Sep2000                  :
 energy of atom  1       EATOM=-1293.1815
 kinetic energy error for atom=    0.0063 (will be added to EATOM!!)
  PAW_PBE Te 08Apr2002                  :
 energy of atom  2       EATOM= -223.2721
 kinetic energy error for atom=    0.0007 (will be added to EATOM!!)
 
 
 POSCAR: CdTe (ICSD, 295K, Rabadanov 2001)       
  positions in direct lattice
  velocities in cartesian coordinates
 exchange correlation table for  LEXCH =        8
   RHO(1)=    0.500       N(1)  =     2000
   RHO(2)=  100.500       N(2)  =     4000
 


--------------------------------------------------------------------------------------------------------


 ion  position               nearest neighbor table
   1  0.000  0.000  0.000-   2 2.81   2 2.81   2 2.81   2 2.81
   2  0.250  0.250  0.250-   1 2.81   1 2.81   1 2.81   1 2.81
 
  LATTYP: Found a face centered cubic cell.
 ALAT       =     6.4827000000
  
  Lattice vectors:
  
 A1 = (   3.2413500000,   3.2413500000,   0.0000000000)
 A2 = (   3.2413500000,   0.0000000000,  -3.2413500000)
 A3 = (   0.0000000000,   3.2413500000,  -3.2413500000)


Analysis of symmetry for initial positions (statically):
=====================================================================
 Subroutine PRICEL returns:
 Original cell was already a primitive cell.
 

 Routine SETGRP: Setting up the symmetry group for a 
 face centered cubic supercell.


 Subroutine GETGRP returns: Found 24 space group operations
 (whereof 24 operations were pure point group operations)
 out of a pool of 48 trial point group operations.


The static configuration has the point symmetry T_d .


Analysis of symmetry for dynamics (positions and initial velocities):
=====================================================================
 Subroutine PRICEL returns:
 Original cell was already a primitive cell.
 

 Routine SETGRP: Setting up the symmetry group for a 
 face centered cubic supercell.


 Subroutine GETGRP returns: Found 24 space group operations
 (whereof 24 operations were pure point group operations)
 out of a pool of 48 trial point group operations.


The dynamic configuration has the point symmetry T_d .


Analysis of structural, dynamic, and magnetic symmetry:
=====================================================================
 Subroutine PRICEL returns:
 Original cell was already a primitive cell.
 

 Routine SETGRP: Setting up the symmetry group for a 
 face centered cubic supercell.


 Subroutine GETGRP returns: Found  3 space group operations
 (whereof  3 operations were pure point group operations)
 out of a pool of 48 trial point group operations.


The (compounded) configuration has the point symmetry C_3 .


 Subroutine INISYM returns: Found  3 space group operations
 (whereof  3 operations are pure point group operations),
 and found     1 'primitive' translations

 
 
 KPOINTS: Automatically generated mesh SCF: 16 ste
  k-points in reciprocal lattice
Space group operators:
 irot       det(A)        alpha          n_x          n_y          n_z        tau_x        tau_y        tau_z
    1     1.000000     0.000000     1.000000     0.000000     0.000000     0.000000     0.000000     0.000000
    2     1.000000   120.000000     0.577350     0.577350     0.577350     0.000000     0.000000     0.000000
    3     1.000000   120.000000    -0.577350    -0.577350    -0.577350     0.000000     0.000000     0.000000


--------------------------------------------------------------------------------------------------------




 Dimension of arrays:
   k-points           NKPTS =    254   k-points in BZ     NKDIM =    254   number of bands    NBANDS=     28
   number of dos      NEDOS =    301   number of ions     NIONS =      2
   non local maximal  LDIM  =      6   non local SUM 2l+1 LMDIM =     18
   total plane-waves  NPLWV =  46656
   max r-space proj   IRMAX =      1   max aug-charges    IRDMAX=  40037
   dimension x,y,z NGX =    36 NGY =   36 NGZ =   36
   dimension x,y,z NGXF=    72 NGYF=   72 NGZF=   72
   support grid    NGXF=    72 NGYF=   72 NGZF=   72
   ions per type =               1   1
 NGX,Y,Z   is equivalent  to a cutoff of  13.06, 13.06, 13.06 a.u.
 NGXF,Y,Z  is equivalent  to a cutoff of  26.11, 26.11, 26.11 a.u.


 I would recommend the setting:
   dimension x,y,z NGX =    33 NGY =   33 NGZ =   33
 SYSTEM =  Name                                    
 POSCAR =  CdTe (ICSD, 295K, Rabadanov 2001)       

 Startparameter for this run:
   NWRITE =      2    write-flag & timer
   PREC   = accura    normal or accurate (medium, high low for compatibility)
   ISTART =      0    job   : 0-new  1-cont  2-samecut
   ICHARG =      2    charge: 1-file 2-atom 10-const
   ISPIN  =      1    spin polarized calculation?
   LNONCOLLINEAR =      T non collinear calculations
   LSORBIT =      T    spin-orbit coupling
   INIWAV =      1    electr: 0-lowe 1-rand  2-diag
   LASPH  =      F    aspherical Exc in radial PAW
   METAGGA=      F    non-selfconsistent MetaGGA calc.

 Electronic Relaxation 1
   ENCUT  =  500.0 eV  36.75 Ry    6.06 a.u.   8.36  8.36  8.36*2*pi/ulx,y,z
   ENINI  =  500.0     initial cutoff
   ENAUG  =  456.1 eV  augmentation charge cutoff
   NELM   =     60;   NELMIN=  2; NELMDL=  0     # of ELM steps 
   EDIFF  = 0.1E-05   stopping-criterion for ELM
   LREAL  =      F    real-space projection
   NLSPLINE    = F    spline interpolate recip. space projectors
   LCOMPAT=      F    compatible to vasp.4.4
   GGA_COMPAT  = T    GGA compatible to vasp.4.4-vasp.4.6
   LMAXPAW     = -100 max onsite density
   LMAXMIX     =    2 max onsite mixed and CHGCAR
   VOSKOWN=      0    Vosko Wilk Nusair interpolation
   ROPT   =    0.00000   0.00000
 Ionic relaxation
   EDIFFG = -.5E-02   stopping-criterion for IOM
   NSW    =      1    number of steps for IOM
   NBLOCK =      1;   KBLOCK =      1    inner block; outer block 
   IBRION =      2    ionic relax: 0-MD 1-quasi-New 2-CG
   NFREE  =      1    steps in history (QN), initial steepest desc. (CG)
   ISIF   =      3    stress and relaxation
   IWAVPR =     11    prediction:  0-non 1-charg 2-wave 3-comb
   ISYM   =      2    0-nonsym 1-usesym 2-fastsym
   LCORR  =      T    Harris-Foulkes like correction to forces

   POTIM  = 0.5000    time-step for ionic-motion
   TEIN   =    0.0    initial temperature
   TEBEG  =    0.0;   TEEND  =   0.0 temperature during run
   SMASS  =  -3.00    Nose mass-parameter (am)
   estimated Nose-frequenzy (Omega)   =  0.10E-29 period in steps =****** mass=  -0.480E-27a.u.
   SCALEE = 1.0000    scale energy and forces
   NPACO  =    256;   APACO  = 16.0  distance and # of slots for P.C.
   PSTRESS=    0.0 pullay stress

  Mass of Ions in am
   POMASS = 112.41127.60
  Ionic Valenz
   ZVAL   =  12.00  6.00
  Atomic Wigner-Seitz radii
   RWIGS  =  -1.00 -1.00
  virtual crystal weights 
   VCA    =   1.00  1.00
   NELECT =      18.0000    total number of electrons
   NUPDOWN=      -1.0000    fix difference up-down

 DOS related values:
   EMIN   =  10.00;   EMAX   =-10.00  energy-range for DOS
   EFERMI =   0.00
   ISMEAR =     0;   SIGMA  =   0.01  broadening in eV -4-tet -1-fermi 0-gaus

 Electronic relaxation 2 (details)
   IALGO  =     38    algorithm
   LDIAG  =      T    sub-space diagonalisation (order eigenvalues)
   LSUBROT=      F    optimize rotation matrix (better conditioning)
   TURBO    =      0    0=normal 1=particle mesh
   IRESTART =      0    0=no restart 2=restart with 2 vectors
   NREBOOT  =      0    no. of reboots
   NMIN     =      0    reboot dimension
   EREF     =   0.00    reference energy to select bands
   IMIX   =      4    mixing-type and parameters
     AMIX     =   0.40;   BMIX     =  1.00
     AMIX_MAG =   1.60;   BMIX_MAG =  1.00
     AMIN     =   0.10
     WC   =   100.;   INIMIX=   1;  MIXPRE=   1;  MAXMIX= -45

 Intra band minimization:
   WEIMIN = 0.0010     energy-eigenvalue tresh-hold
   EBREAK =  0.89E-08  absolut break condition
   DEPER  =   0.30     relativ break condition  

   TIME   =   0.40     timestep for ELM

  volume/ion in A,a.u.               =      34.05       229.81
  Fermi-wavevector in a.u.,A,eV,Ry     =   1.050581  1.985311 15.017042  1.103721
  Thomas-Fermi vector in A             =   2.185590
 
 Write flags
   LWAVE  =      T    write WAVECAR
   LCHARG =      T    write CHGCAR
   LVTOT  =      F    write LOCPOT, total local potential
   LVHAR  =      F    write LOCPOT, Hartree potential only
   LELF   =      F    write electronic localiz. function (ELF)
   LORBIT =     10    0 simple, 1 ext, 2 COOP (PROOUT)


 Dipole corrections
   LMONO  =      F    monopole corrections only (constant potential shift)
   LDIPOL =      F    correct potential (dipole corrections)
   IDIPOL =      0    1-x, 2-y, 3-z, 4-all directions 
   EPSILON=  1.0000000 bulk dielectric constant

 Core level calculations are selected ICORELEVEL =  1
 Exchange correlation treatment:
   GGA     =    PE    GGA type
   LEXCH   =     8    internal setting for exchange type
   VOSKOWN=      0    Vosko Wilk Nusair interpolation
   LHFCALC =     F    Hartree Fock is set to
   LHFONE  =     F    Hartree Fock one center treatment
   AEXX    =    0.0000 exact exchange contribution

 Linear response parameters
   LEPSILON=     F    determine dielectric tensor
   LRPA    =     F    only Hartree local field effects (RPA)
   LNABLA  =     F    use nabla operator in PAW spheres
   LVEL    =     F    velocity operator in full k-point grid
   LINTERFAST=   F  fast interpolation
   KINTER  =     0    interpolate to denser k-point grid
   CSHIFT  =0.1000    complex shift for real part using Kramers Kronig
   OMEGAMAX=  -1.0    maximum frequency
   DEG_THRESHOLD= 0.2000000E-02 threshold for treating states as degnerate
   RTIME   =    0.100 relaxation time in fs

 Orbital magnetization related:
   ORBITALMAG=     F  switch on orbital magnetization
   LCHIMAG   =     F  perturbation theory with respect to B field
   DQ        =  0.001000  dq finite difference perturbation B field



--------------------------------------------------------------------------------------------------------


 conjugate gradient relaxation of ions
 charge density and potential will be updated during run
 non collinear spin polarized calculation
 Variant of blocked Davidson
 Davidson routine will perform the subspace rotation
 perform sub-space diagonalisation
    after iterative eigenvector-optimisation
 modified Broyden-mixing scheme, WC =      100.0
 initial mixing is a Kerker type mixing with AMIX =  0.4000 and BMIX =      1.0000
 Hartree-type preconditioning will be used
 using additional bands           19
 reciprocal scheme for non local part
 use partial core corrections
 calculate Harris-corrections to forces 
   (improved forces if not selfconsistent)
 use gradient corrections 
 use of overlap-Matrix (Vanderbilt PP)
 Gauss-broadening in eV      SIGMA  =   0.01


--------------------------------------------------------------------------------------------------------


  energy-cutoff  :      500.00
  volume of cell :       68.11
      direct lattice vectors                 reciprocal lattice vectors
     3.241350000  3.241350000  0.000000000     0.154256714  0.154256714  0.154256714
     3.241350000  0.000000000 -3.241350000     0.154256714 -0.154256714 -0.154256714
     0.000000000  3.241350000 -3.241350000    -0.154256714  0.154256714 -0.154256714

  length of vectors
     4.583961130  4.583961130  4.583961130     0.267180466  0.267180466  0.267180466


 
 k-points in units of 2pi/SCALE and weight: Automatically generated mesh SCF: 16 ste
   0.00000000  0.00000000  0.00000000       0.005
   0.16666667  0.16666667  0.16666667       0.037
   0.33333333  0.33333333  0.33333333       0.037
   0.50000000  0.50000000  0.50000000       0.019
   0.33333333  0.00000000  0.00000000       0.028
   0.50000000  0.16666667  0.16666667       0.111
   0.66666667  0.33333333  0.33333333       0.111
  -0.16666667 -0.50000000 -0.50000000       0.111
   0.00000000 -0.33333333 -0.33333333       0.056
   0.66666667  0.00000000  0.00000000       0.028
   0.83333333  0.16666667  0.16666667       0.111
   0.00000000 -0.66666667 -0.66666667       0.056
   1.00000000  0.00000000  0.00000000       0.014
   0.66666667  0.33333333  0.00000000       0.111
  -0.16666667 -0.50000000 -0.83333333       0.111
   0.00000000 -0.66666667 -1.00000000       0.056
   0.00000000  0.00000000  0.00000000       0.000
   0.00000000  0.00420168  0.00000000       0.000
   0.00000000  0.00840336  0.00000000       0.000
   0.00000000  0.01260504  0.00000000       0.000
   0.00000000  0.01680672  0.00000000       0.000
   0.00000000  0.02100840  0.00000000       0.000
   0.00000000  0.02521008  0.00000000       0.000
   0.00000000  0.02941176  0.00000000       0.000
   0.00000000  0.03361344  0.00000000       0.000
   0.00000000  0.03781512  0.00000000       0.000
   0.00000000  0.04201680  0.00000000       0.000
   0.00000000  0.04621848  0.00000000       0.000
   0.00000000  0.05042016  0.00000000       0.000
   0.00000000  0.05462184  0.00000000       0.000
   0.00000000  0.05882352  0.00000000       0.000
   0.00000000  0.06302520  0.00000000       0.000
   0.00000000  0.06722688  0.00000000       0.000
   0.00000000  0.07142858  0.00000000       0.000
   0.00000000  0.07563024  0.00000000       0.000
   0.00000000  0.07983194  0.00000000       0.000
   0.00000000  0.08403360  0.00000000       0.000
   0.00000000  0.08823530  0.00000000       0.000
   0.00000000  0.09243698  0.00000000       0.000
   0.00000000  0.09663866  0.00000000       0.000
   0.00000000  0.10084034  0.00000000       0.000
   0.00000000  0.10504202  0.00000000       0.000
   0.00000000  0.10924370  0.00000000       0.000
   0.00000000  0.11344538  0.00000000       0.000
   0.00000000  0.11764706  0.00000000       0.000
   0.00000000  0.12184874  0.00000000       0.000
   0.00000000  0.12605042  0.00000000       0.000
   0.00000000  0.13025210  0.00000000       0.000
   0.00000000  0.13445378  0.00000000       0.000
   0.00000000  0.13865546  0.00000000       0.000
   0.00000000  0.14285714  0.00000000       0.000
   0.00000000  0.14705882  0.00000000       0.000
   0.00000000  0.15126050  0.00000000       0.000
   0.00000000  0.15546220  0.00000000       0.000
   0.00000000  0.15966388  0.00000000       0.000
   0.00000000  0.16386556  0.00000000       0.000
   0.00000000  0.16806722  0.00000000       0.000
   0.00000000  0.17226890  0.00000000       0.000
   0.00000000  0.17647060  0.00000000       0.000
   0.00000000  0.18067228  0.00000000       0.000
   0.00000000  0.18487396  0.00000000       0.000
   0.00000000  0.18907564  0.00000000       0.000
   0.00000000  0.19327732  0.00000000       0.000
   0.00000000  0.19747900  0.00000000       0.000
   0.00000000  0.20168068  0.00000000       0.000
   0.00000000  0.20588234  0.00000000       0.000
   0.00000000  0.21008402  0.00000000       0.000
   0.00000000  0.21428570  0.00000000       0.000
   0.00000000  0.21848740  0.00000000       0.000
   0.00000000  0.22268908  0.00000000       0.000
   0.00000000  0.22689076  0.00000000       0.000
   0.00000000  0.23109244  0.00000000       0.000
   0.00000000  0.23529412  0.00000000       0.000
   0.00000000  0.23949580  0.00000000       0.000
   0.00000000  0.24369748  0.00000000       0.000
   0.00000000  0.24789914  0.00000000       0.000
   0.00000000  0.25210082  0.00000000       0.000
   0.00000000  0.25630250  0.00000000       0.000
   0.00000000  0.26050418  0.00000000       0.000
   0.00000000  0.26470586  0.00000000       0.000
   0.00000000  0.26890754  0.00000000       0.000
   0.00000000  0.27310926  0.00000000       0.000
   0.00000000  0.27731094  0.00000000       0.000
   0.00000000  0.28151262  0.00000000       0.000
   0.00000000  0.28571430  0.00000000       0.000
   0.00000000  0.28991598  0.00000000       0.000
   0.00000000  0.29411762  0.00000000       0.000
   0.00000000  0.29831930  0.00000000       0.000
   0.00000000  0.30252100  0.00000000       0.000
   0.00000000  0.30672268  0.00000000       0.000
   0.00000000  0.31092438  0.00000000       0.000
   0.00000000  0.31512606  0.00000000       0.000
   0.00000000  0.31932774  0.00000000       0.000
   0.00000000  0.32352942  0.00000000       0.000
   0.00000000  0.32773110  0.00000000       0.000
   0.00000000  0.33193278  0.00000000       0.000
   0.00000000  0.33613444  0.00000000       0.000
   0.00000000  0.34033612  0.00000000       0.000
   0.00000000  0.34453780  0.00000000       0.000
   0.00000000  0.34873948  0.00000000       0.000
   0.00000000  0.35294118  0.00000000       0.000
   0.00000000  0.35714286  0.00000000       0.000
   0.00000000  0.36134454  0.00000000       0.000
   0.00000000  0.36554620  0.00000000       0.000
   0.00000000  0.36974790  0.00000000       0.000
   0.00000000  0.37394956  0.00000000       0.000
   0.00000000  0.37815126  0.00000000       0.000
   0.00000000  0.38235292  0.00000000       0.000
   0.00000000  0.38655462  0.00000000       0.000
   0.00000000  0.39075628  0.00000000       0.000
   0.00000000  0.39495798  0.00000000       0.000
   0.00000000  0.39915966  0.00000000       0.000
   0.00000000  0.40336136  0.00000000       0.000
   0.00000000  0.40756304  0.00000000       0.000
   0.00000000  0.41176468  0.00000000       0.000
   0.00000000  0.41596640  0.00000000       0.000
   0.00000000  0.42016804  0.00000000       0.000
   0.00000000  0.42436976  0.00000000       0.000
   0.00000000  0.42857140  0.00000000       0.000
   0.00000000  0.43277312  0.00000000       0.000
   0.00000000  0.43697480  0.00000000       0.000
   0.00000000  0.44117648  0.00000000       0.000
   0.00000000  0.44537816  0.00000000       0.000
   0.00000000  0.44957980  0.00000000       0.000
   0.00000000  0.45378152  0.00000000       0.000
   0.00000000  0.45798316  0.00000000       0.000
   0.00000000  0.46218488  0.00000000       0.000
   0.00000000  0.46638652  0.00000000       0.000
   0.00000000  0.47058824  0.00000000       0.000
   0.00000000  0.47478992  0.00000000       0.000
   0.00000000  0.47899160  0.00000000       0.000
   0.00000000  0.48319328  0.00000000       0.000
   0.00000000  0.48739496  0.00000000       0.000
   0.00000000  0.49159664  0.00000000       0.000
   0.00000000  0.49579828  0.00000000       0.000
   0.00000000  0.50000000  0.00000000       0.000
   0.00000000  0.50420166  0.00000000       0.000
   0.00000000  0.50840336  0.00000000       0.000
   0.00000000  0.51260502  0.00000000       0.000
   0.00000000  0.51680672  0.00000000       0.000
   0.00000000  0.52100838  0.00000000       0.000
   0.00000000  0.52521008  0.00000000       0.000
   0.00000000  0.52941174  0.00000000       0.000
   0.00000000  0.53361344  0.00000000       0.000
   0.00000000  0.53781510  0.00000000       0.000
   0.00000000  0.54201680  0.00000000       0.000
   0.00000000  0.54621852  0.00000000       0.000
   0.00000000  0.55042016  0.00000000       0.000
   0.00000000  0.55462188  0.00000000       0.000
   0.00000000  0.55882352  0.00000000       0.000
   0.00000000  0.56302524  0.00000000       0.000
   0.00000000  0.56722688  0.00000000       0.000
   0.00000000  0.57142860  0.00000000       0.000
   0.00000000  0.57563024  0.00000000       0.000
   0.00000000  0.57983196  0.00000000       0.000
   0.00000000  0.58403360  0.00000000       0.000
   0.00000000  0.58823526  0.00000000       0.000
   0.00000000  0.59243696  0.00000000       0.000
   0.00000000  0.59663862  0.00000000       0.000
   0.00000000  0.60084034  0.00000000       0.000
   0.00000000  0.60504198  0.00000000       0.000
   0.00000000  0.60924370  0.00000000       0.000
   0.00000000  0.61344534  0.00000000       0.000
   0.00000000  0.61764706  0.00000000       0.000
   0.00000000  0.62184876  0.00000000       0.000
   0.00000000  0.62605042  0.00000000       0.000
   0.00000000  0.63025212  0.00000000       0.000
   0.00000000  0.63445378  0.00000000       0.000
   0.00000000  0.63865548  0.00000000       0.000
   0.00000000  0.64285714  0.00000000       0.000
   0.00000000  0.64705884  0.00000000       0.000
   0.00000000  0.65126050  0.00000000       0.000
   0.00000000  0.65546220  0.00000000       0.000
   0.00000000  0.65966386  0.00000000       0.000
   0.00000000  0.66386556  0.00000000       0.000
   0.00000000  0.66806722  0.00000000       0.000
   0.00000000  0.67226886  0.00000000       0.000
   0.00000000  0.67647058  0.00000000       0.000
   0.00000000  0.68067222  0.00000000       0.000
   0.00000000  0.68487394  0.00000000       0.000
   0.00000000  0.68907558  0.00000000       0.000
   0.00000000  0.69327730  0.00000000       0.000
   0.00000000  0.69747896  0.00000000       0.000
   0.00000000  0.70168066  0.00000000       0.000
   0.00000000  0.70588238  0.00000000       0.000
   0.00000000  0.71008402  0.00000000       0.000
   0.00000000  0.71428574  0.00000000       0.000
   0.00000000  0.71848738  0.00000000       0.000
   0.00000000  0.72268910  0.00000000       0.000
   0.00000000  0.72689080  0.00000000       0.000
   0.00000000  0.73109240  0.00000000       0.000
   0.00000000  0.73529410  0.00000000       0.000
   0.00000000  0.73949582  0.00000000       0.000
   0.00000000  0.74369752  0.00000000       0.000
   0.00000000  0.74789912  0.00000000       0.000
   0.00000000  0.75210082  0.00000000       0.000
   0.00000000  0.75630254  0.00000000       0.000
   0.00000000  0.76050424  0.00000000       0.000
   0.00000000  0.76470584  0.00000000       0.000
   0.00000000  0.76890754  0.00000000       0.000
   0.00000000  0.77310926  0.00000000       0.000
   0.00000000  0.77731090  0.00000000       0.000
   0.00000000  0.78151256  0.00000000       0.000
   0.00000000  0.78571426  0.00000000       0.000
   0.00000000  0.78991598  0.00000000       0.000
   0.00000000  0.79411762  0.00000000       0.000
   0.00000000  0.79831934  0.00000000       0.000
   0.00000000  0.80252104  0.00000000       0.000
   0.00000000  0.80672270  0.00000000       0.000
   0.00000000  0.81092436  0.00000000       0.000
   0.00000000  0.81512606  0.00000000       0.000
   0.00000000  0.81932778  0.00000000       0.000
   0.00000000  0.82352936  0.00000000       0.000
   0.00000000  0.82773108  0.00000000       0.000
   0.00000000  0.83193278  0.00000000       0.000
   0.00000000  0.83613450  0.00000000       0.000
   0.00000000  0.84033608  0.00000000       0.000
   0.00000000  0.84453780  0.00000000       0.000
   0.00000000  0.84873950  0.00000000       0.000
   0.00000000  0.85294116  0.00000000       0.000
   0.00000000  0.85714280  0.00000000       0.000
   0.00000000  0.86134452  0.00000000       0.000
   0.00000000  0.86554622  0.00000000       0.000
   0.00000000  0.86974788  0.00000000       0.000
   0.00000000  0.87394958  0.00000000       0.000
   0.00000000  0.87815124  0.00000000       0.000
   0.00000000  0.88235294  0.00000000       0.000
   0.00000000  0.88655460  0.00000000       0.000
   0.00000000  0.89075630  0.00000000       0.000
   0.00000000  0.89495802  0.00000000       0.000
   0.00000000  0.89915962  0.00000000       0.000
   0.00000000  0.90336132  0.00000000       0.000
   0.00000000  0.90756304  0.00000000       0.000
   0.00000000  0.91176474  0.00000000       0.000
   0.00000000  0.91596634  0.00000000       0.000
   0.00000000  0.92016804  0.00000000       0.000
   0.00000000  0.92436976  0.00000000       0.000
   0.00000000  0.92857146  0.00000000       0.000
   0.00000000  0.93277306  0.00000000       0.000
   0.00000000  0.93697476  0.00000000       0.000
   0.00000000  0.94117648  0.00000000       0.000
   0.00000000  0.94537812  0.00000000       0.000
   0.00000000  0.94957984  0.00000000       0.000
   0.00000000  0.95378148  0.00000000       0.000
   0.00000000  0.95798320  0.00000000       0.000
   0.00000000  0.96218484  0.00000000       0.000
   0.00000000  0.96638656  0.00000000       0.000
   0.00000000  0.97058826  0.00000000       0.000
   0.00000000  0.97478992  0.00000000       0.000
   0.00000000  0.97899156  0.00000000       0.000
   0.00000000  0.98319328  0.00000000       0.000
   0.00000000  0.98739498  0.00000000       0.000
   0.00000000  0.99159658  0.00000000       0.000
   0.00000000  0.99579828  0.00000000       0.000
 
 k-points in reciprocal lattice and weights: Automatically generated mesh SCF: 16 ste
   0.00000000  0.00000000  0.00000000       0.005
   0.16666667  0.00000000  0.00000000       0.037
   0.33333333  0.00000000  0.00000000       0.037
   0.50000000  0.00000000  0.00000000       0.019
   0.16666667  0.16666667  0.00000000       0.028
   0.33333333  0.16666667  0.00000000       0.111
   0.50000000  0.16666667  0.00000000       0.111
  -0.33333333  0.16666667  0.00000000       0.111
  -0.16666667  0.16666667  0.00000000       0.056
   0.33333333  0.33333333  0.00000000       0.028
   0.50000000  0.33333333  0.00000000       0.111
  -0.33333333  0.33333333  0.00000000       0.056
   0.50000000  0.50000000  0.00000000       0.014
   0.50000000  0.33333333  0.16666667       0.111
  -0.33333333  0.33333333  0.16666667       0.111
  -0.33333333  0.50000000  0.16666667       0.056
   0.00000000  0.00000000  0.00000000       0.000
   0.00210084  0.00000000  0.00210084       0.000
   0.00420168  0.00000000  0.00420168       0.000
   0.00630252  0.00000000  0.00630252       0.000
   0.00840336  0.00000000  0.00840336       0.000
   0.01050420  0.00000000  0.01050420       0.000
   0.01260504  0.00000000  0.01260504       0.000
   0.01470588  0.00000000  0.01470588       0.000
   0.01680672  0.00000000  0.01680672       0.000
   0.01890756  0.00000000  0.01890756       0.000
   0.02100840  0.00000000  0.02100840       0.000
   0.02310924  0.00000000  0.02310924       0.000
   0.02521008  0.00000000  0.02521008       0.000
   0.02731092  0.00000000  0.02731092       0.000
   0.02941176  0.00000000  0.02941176       0.000
   0.03151260  0.00000000  0.03151260       0.000
   0.03361344  0.00000000  0.03361344       0.000
   0.03571429  0.00000000  0.03571429       0.000
   0.03781512  0.00000000  0.03781512       0.000
   0.03991597  0.00000000  0.03991597       0.000
   0.04201680  0.00000000  0.04201680       0.000
   0.04411765  0.00000000  0.04411765       0.000
   0.04621849  0.00000000  0.04621849       0.000
   0.04831933  0.00000000  0.04831933       0.000
   0.05042017  0.00000000  0.05042017       0.000
   0.05252101  0.00000000  0.05252101       0.000
   0.05462185  0.00000000  0.05462185       0.000
   0.05672269  0.00000000  0.05672269       0.000
   0.05882353  0.00000000  0.05882353       0.000
   0.06092437  0.00000000  0.06092437       0.000
   0.06302521  0.00000000  0.06302521       0.000
   0.06512605  0.00000000  0.06512605       0.000
   0.06722689  0.00000000  0.06722689       0.000
   0.06932773  0.00000000  0.06932773       0.000
   0.07142857  0.00000000  0.07142857       0.000
   0.07352941  0.00000000  0.07352941       0.000
   0.07563025  0.00000000  0.07563025       0.000
   0.07773110  0.00000000  0.07773110       0.000
   0.07983194  0.00000000  0.07983194       0.000
   0.08193278  0.00000000  0.08193278       0.000
   0.08403361  0.00000000  0.08403361       0.000
   0.08613445  0.00000000  0.08613445       0.000
   0.08823530  0.00000000  0.08823530       0.000
   0.09033614  0.00000000  0.09033614       0.000
   0.09243698  0.00000000  0.09243698       0.000
   0.09453782  0.00000000  0.09453782       0.000
   0.09663866  0.00000000  0.09663866       0.000
   0.09873950  0.00000000  0.09873950       0.000
   0.10084034  0.00000000  0.10084034       0.000
   0.10294117  0.00000000  0.10294117       0.000
   0.10504201  0.00000000  0.10504201       0.000
   0.10714285  0.00000000  0.10714285       0.000
   0.10924370  0.00000000  0.10924370       0.000
   0.11134454  0.00000000  0.11134454       0.000
   0.11344538  0.00000000  0.11344538       0.000
   0.11554622  0.00000000  0.11554622       0.000
   0.11764706  0.00000000  0.11764706       0.000
   0.11974790  0.00000000  0.11974790       0.000
   0.12184874  0.00000000  0.12184874       0.000
   0.12394957  0.00000000  0.12394957       0.000
   0.12605041  0.00000000  0.12605041       0.000
   0.12815125  0.00000000  0.12815125       0.000
   0.13025209  0.00000000  0.13025209       0.000
   0.13235293  0.00000000  0.13235293       0.000
   0.13445377  0.00000000  0.13445377       0.000
   0.13655463  0.00000000  0.13655463       0.000
   0.13865547  0.00000000  0.13865547       0.000
   0.14075631  0.00000000  0.14075631       0.000
   0.14285715  0.00000000  0.14285715       0.000
   0.14495799  0.00000000  0.14495799       0.000
   0.14705881  0.00000000  0.14705881       0.000
   0.14915965  0.00000000  0.14915965       0.000
   0.15126050  0.00000000  0.15126050       0.000
   0.15336134  0.00000000  0.15336134       0.000
   0.15546219  0.00000000  0.15546219       0.000
   0.15756303  0.00000000  0.15756303       0.000
   0.15966387  0.00000000  0.15966387       0.000
   0.16176471  0.00000000  0.16176471       0.000
   0.16386555  0.00000000  0.16386555       0.000
   0.16596639  0.00000000  0.16596639       0.000
   0.16806722  0.00000000  0.16806722       0.000
   0.17016806  0.00000000  0.17016806       0.000
   0.17226890  0.00000000  0.17226890       0.000
   0.17436974  0.00000000  0.17436974       0.000
   0.17647059  0.00000000  0.17647059       0.000
   0.17857143  0.00000000  0.17857143       0.000
   0.18067227  0.00000000  0.18067227       0.000
   0.18277310  0.00000000  0.18277310       0.000
   0.18487395  0.00000000  0.18487395       0.000
   0.18697478  0.00000000  0.18697478       0.000
   0.18907563  0.00000000  0.18907563       0.000
   0.19117646  0.00000000  0.19117646       0.000
   0.19327731  0.00000000  0.19327731       0.000
   0.19537814  0.00000000  0.19537814       0.000
   0.19747899  0.00000000  0.19747899       0.000
   0.19957983  0.00000000  0.19957983       0.000
   0.20168068  0.00000000  0.20168068       0.000
   0.20378152  0.00000000  0.20378152       0.000
   0.20588234  0.00000000  0.20588234       0.000
   0.20798320  0.00000000  0.20798320       0.000
   0.21008402  0.00000000  0.21008402       0.000
   0.21218488  0.00000000  0.21218488       0.000
   0.21428570  0.00000000  0.21428570       0.000
   0.21638656  0.00000000  0.21638656       0.000
   0.21848740  0.00000000  0.21848740       0.000
   0.22058824  0.00000000  0.22058824       0.000
   0.22268908  0.00000000  0.22268908       0.000
   0.22478990  0.00000000  0.22478990       0.000
   0.22689076  0.00000000  0.22689076       0.000
   0.22899158  0.00000000  0.22899158       0.000
   0.23109244  0.00000000  0.23109244       0.000
   0.23319326  0.00000000  0.23319326       0.000
   0.23529412  0.00000000  0.23529412       0.000
   0.23739496  0.00000000  0.23739496       0.000
   0.23949580  0.00000000  0.23949580       0.000
   0.24159664  0.00000000  0.24159664       0.000
   0.24369748  0.00000000  0.24369748       0.000
   0.24579832  0.00000000  0.24579832       0.000
   0.24789914  0.00000000  0.24789914       0.000
   0.25000000  0.00000000  0.25000000       0.000
   0.25210083  0.00000000  0.25210083       0.000
   0.25420168  0.00000000  0.25420168       0.000
   0.25630251  0.00000000  0.25630251       0.000
   0.25840336  0.00000000  0.25840336       0.000
   0.26050419  0.00000000  0.26050419       0.000
   0.26260504  0.00000000  0.26260504       0.000
   0.26470587  0.00000000  0.26470587       0.000
   0.26680672  0.00000000  0.26680672       0.000
   0.26890755  0.00000000  0.26890755       0.000
   0.27100840  0.00000000  0.27100840       0.000
   0.27310926  0.00000000  0.27310926       0.000
   0.27521008  0.00000000  0.27521008       0.000
   0.27731094  0.00000000  0.27731094       0.000
   0.27941176  0.00000000  0.27941176       0.000
   0.28151262  0.00000000  0.28151262       0.000
   0.28361344  0.00000000  0.28361344       0.000
   0.28571430  0.00000000  0.28571430       0.000
   0.28781512  0.00000000  0.28781512       0.000
   0.28991598  0.00000000  0.28991598       0.000
   0.29201680  0.00000000  0.29201680       0.000
   0.29411763  0.00000000  0.29411763       0.000
   0.29621848  0.00000000  0.29621848       0.000
   0.29831931  0.00000000  0.29831931       0.000
   0.30042017  0.00000000  0.30042017       0.000
   0.30252099  0.00000000  0.30252099       0.000
   0.30462185  0.00000000  0.30462185       0.000
   0.30672267  0.00000000  0.30672267       0.000
   0.30882353  0.00000000  0.30882353       0.000
   0.31092438  0.00000000  0.31092438       0.000
   0.31302521  0.00000000  0.31302521       0.000
   0.31512606  0.00000000  0.31512606       0.000
   0.31722689  0.00000000  0.31722689       0.000
   0.31932774  0.00000000  0.31932774       0.000
   0.32142857  0.00000000  0.32142857       0.000
   0.32352942  0.00000000  0.32352942       0.000
   0.32563025  0.00000000  0.32563025       0.000
   0.32773110  0.00000000  0.32773110       0.000
   0.32983193  0.00000000  0.32983193       0.000
   0.33193278  0.00000000  0.33193278       0.000
   0.33403361  0.00000000  0.33403361       0.000
   0.33613443  0.00000000  0.33613443       0.000
   0.33823529  0.00000000  0.33823529       0.000
   0.34033611  0.00000000  0.34033611       0.000
   0.34243697  0.00000000  0.34243697       0.000
   0.34453779  0.00000000  0.34453779       0.000
   0.34663865  0.00000000  0.34663865       0.000
   0.34873948  0.00000000  0.34873948       0.000
   0.35084033  0.00000000  0.35084033       0.000
   0.35294119  0.00000000  0.35294119       0.000
   0.35504201  0.00000000  0.35504201       0.000
   0.35714287  0.00000000  0.35714287       0.000
   0.35924369  0.00000000  0.35924369       0.000
   0.36134455  0.00000000  0.36134455       0.000
   0.36344540  0.00000000  0.36344540       0.000
   0.36554620  0.00000000  0.36554620       0.000
   0.36764705  0.00000000  0.36764705       0.000
   0.36974791  0.00000000  0.36974791       0.000
   0.37184876  0.00000000  0.37184876       0.000
   0.37394956  0.00000000  0.37394956       0.000
   0.37605041  0.00000000  0.37605041       0.000
   0.37815127  0.00000000  0.37815127       0.000
   0.38025212  0.00000000  0.38025212       0.000
   0.38235292  0.00000000  0.38235292       0.000
   0.38445377  0.00000000  0.38445377       0.000
   0.38655463  0.00000000  0.38655463       0.000
   0.38865545  0.00000000  0.38865545       0.000
   0.39075628  0.00000000  0.39075628       0.000
   0.39285713  0.00000000  0.39285713       0.000
   0.39495799  0.00000000  0.39495799       0.000
   0.39705881  0.00000000  0.39705881       0.000
   0.39915967  0.00000000  0.39915967       0.000
   0.40126052  0.00000000  0.40126052       0.000
   0.40336135  0.00000000  0.40336135       0.000
   0.40546218  0.00000000  0.40546218       0.000
   0.40756303  0.00000000  0.40756303       0.000
   0.40966389  0.00000000  0.40966389       0.000
   0.41176468  0.00000000  0.41176468       0.000
   0.41386554  0.00000000  0.41386554       0.000
   0.41596639  0.00000000  0.41596639       0.000
   0.41806725  0.00000000  0.41806725       0.000
   0.42016804  0.00000000  0.42016804       0.000
   0.42226890  0.00000000  0.42226890       0.000
   0.42436975  0.00000000  0.42436975       0.000
   0.42647058  0.00000000  0.42647058       0.000
   0.42857140  0.00000000  0.42857140       0.000
   0.43067226  0.00000000  0.43067226       0.000
   0.43277311  0.00000000  0.43277311       0.000
   0.43487394  0.00000000  0.43487394       0.000
   0.43697479  0.00000000  0.43697479       0.000
   0.43907562  0.00000000  0.43907562       0.000
   0.44117647  0.00000000  0.44117647       0.000
   0.44327730  0.00000000  0.44327730       0.000
   0.44537815  0.00000000  0.44537815       0.000
   0.44747901  0.00000000  0.44747901       0.000
   0.44957981  0.00000000  0.44957981       0.000
   0.45168066  0.00000000  0.45168066       0.000
   0.45378152  0.00000000  0.45378152       0.000
   0.45588237  0.00000000  0.45588237       0.000
   0.45798317  0.00000000  0.45798317       0.000
   0.46008402  0.00000000  0.46008402       0.000
   0.46218488  0.00000000  0.46218488       0.000
   0.46428573  0.00000000  0.46428573       0.000
   0.46638653  0.00000000  0.46638653       0.000
   0.46848738  0.00000000  0.46848738       0.000
   0.47058824  0.00000000  0.47058824       0.000
   0.47268906  0.00000000  0.47268906       0.000
   0.47478992  0.00000000  0.47478992       0.000
   0.47689074  0.00000000  0.47689074       0.000
   0.47899160  0.00000000  0.47899160       0.000
   0.48109242  0.00000000  0.48109242       0.000
   0.48319328  0.00000000  0.48319328       0.000
   0.48529413  0.00000000  0.48529413       0.000
   0.48739496  0.00000000  0.48739496       0.000
   0.48949578  0.00000000  0.48949578       0.000
   0.49159664  0.00000000  0.49159664       0.000
   0.49369749  0.00000000  0.49369749       0.000
   0.49579829  0.00000000  0.49579829       0.000
   0.49789914  0.00000000  0.49789914       0.000
 
 position of ions in fractional coordinates (direct lattice) 
   0.00000000  0.00000000  0.00000000
   0.25000000  0.25000000  0.25000000
 
 position of ions in cartesian coordinates  (Angst):
   0.00000000  0.00000000  0.00000000
   1.62067500  1.62067500 -1.62067500
 
 Euler angles ALPHA=     0.0000000  BETA=     0.0000000

 transformation matrix from SAXIS to cartesian coordinates
 ---------------------------------------------------------
     1.0000000 m_x     0.0000000 m_y     0.0000000 m_z
     0.0000000 m_x     1.0000000 m_y     0.0000000 m_z
     0.0000000 m_x     0.0000000 m_y     1.0000000 m_z

 transformation matrix from cartesian coordinates to SAXIS
 ---------------------------------------------------------
     1.0000000 m_x     0.0000000 m_y     0.0000000 m_z
     0.0000000 m_x     1.0000000 m_y     0.0000000 m_z
     0.0000000 m_x     0.0000000 m_y     1.0000000 m_z




--------------------------------------------------------------------------------------------------------


 k-point  1 :   0.0000 0.0000 0.0000  plane waves:    3518
 k-point  2 :   0.1667 0.0000 0.0000  plane waves:    3494
 k-point  3 :   0.3333 0.0000 0.0000  plane waves:    3460
 k-point  4 :   0.5000 0.0000 0.0000  plane waves:    3436
 k-point  5 :   0.1667 0.1667 0.0000  plane waves:    3472
 k-point  6 :   0.3333 0.1667 0.0000  plane waves:    3458
 k-point  7 :   0.5000 0.1667 0.0000  plane waves:    3478
 k-point  8 :  -0.3333 0.1667 0.0000  plane waves:    3464
 k-point  9 :  -0.1667 0.1667 0.0000  plane waves:    3470
 k-point 10 :   0.3333 0.3333 0.0000  plane waves:    3456
 k-point 11 :   0.5000 0.3333 0.0000  plane waves:    3446
 k-point 12 :  -0.3333 0.3333 0.0000  plane waves:    3452
 k-point 13 :   0.5000 0.5000 0.0000  plane waves:    3448
 k-point 14 :   0.5000 0.3333 0.1667  plane waves:    3448
 k-point 15 :  -0.3333 0.3333 0.1667  plane waves:    3452
 k-point 16 :  -0.3333 0.5000 0.1667  plane waves:    3444
 k-point 17 :   0.0000 0.0000 0.0000  plane waves:    3518
 k-point 18 :   0.0021 0.0000 0.0021  plane waves:    3518
 k-point 19 :   0.0042 0.0000 0.0042  plane waves:    3518
 k-point 20 :   0.0063 0.0000 0.0063  plane waves:    3518
 k-point 21 :   0.0084 0.0000 0.0084  plane waves:    3534
 k-point 22 :   0.0105 0.0000 0.0105  plane waves:    3534
 k-point 23 :   0.0126 0.0000 0.0126  plane waves:    3550
 k-point 24 :   0.0147 0.0000 0.0147  plane waves:    3550
 k-point 25 :   0.0168 0.0000 0.0168  plane waves:    3542
 k-point 26 :   0.0189 0.0000 0.0189  plane waves:    3542
 k-point 27 :   0.0210 0.0000 0.0210  plane waves:    3526
 k-point 28 :   0.0231 0.0000 0.0231  plane waves:    3526
 k-point 29 :   0.0252 0.0000 0.0252  plane waves:    3510
 k-point 30 :   0.0273 0.0000 0.0273  plane waves:    3510
 k-point 31 :   0.0294 0.0000 0.0294  plane waves:    3510
 k-point 32 :   0.0315 0.0000 0.0315  plane waves:    3510
 k-point 33 :   0.0336 0.0000 0.0336  plane waves:    3510
 k-point 34 :   0.0357 0.0000 0.0357  plane waves:    3510
 k-point 35 :   0.0378 0.0000 0.0378  plane waves:    3510
 k-point 36 :   0.0399 0.0000 0.0399  plane waves:    3526
 k-point 37 :   0.0420 0.0000 0.0420  plane waves:    3526
 k-point 38 :   0.0441 0.0000 0.0441  plane waves:    3526
 k-point 39 :   0.0462 0.0000 0.0462  plane waves:    3526
 k-point 40 :   0.0483 0.0000 0.0483  plane waves:    3526
 k-point 41 :   0.0504 0.0000 0.0504  plane waves:    3526
 k-point 42 :   0.0525 0.0000 0.0525  plane waves:    3526
 k-point 43 :   0.0546 0.0000 0.0546  plane waves:    3526
 k-point 44 :   0.0567 0.0000 0.0567  plane waves:    3526
 k-point 45 :   0.0588 0.0000 0.0588  plane waves:    3494
 k-point 46 :   0.0609 0.0000 0.0609  plane waves:    3494
 k-point 47 :   0.0630 0.0000 0.0630  plane waves:    3494
 k-point 48 :   0.0651 0.0000 0.0651  plane waves:    3494
 k-point 49 :   0.0672 0.0000 0.0672  plane waves:    3494
 k-point 50 :   0.0693 0.0000 0.0693  plane waves:    3494
 k-point 51 :   0.0714 0.0000 0.0714  plane waves:    3494
 k-point 52 :   0.0735 0.0000 0.0735  plane waves:    3494
 k-point 53 :   0.0756 0.0000 0.0756  plane waves:    3494
 k-point 54 :   0.0777 0.0000 0.0777  plane waves:    3494
 k-point 55 :   0.0798 0.0000 0.0798  plane waves:    3494
 k-point 56 :   0.0819 0.0000 0.0819  plane waves:    3494
 k-point 57 :   0.0840 0.0000 0.0840  plane waves:    3494
 k-point 58 :   0.0861 0.0000 0.0861  plane waves:    3494
 k-point 59 :   0.0882 0.0000 0.0882  plane waves:    3494
 k-point 60 :   0.0903 0.0000 0.0903  plane waves:    3496
 k-point 61 :   0.0924 0.0000 0.0924  plane waves:    3488
 k-point 62 :   0.0945 0.0000 0.0945  plane waves:    3488
 k-point 63 :   0.0966 0.0000 0.0966  plane waves:    3488
 k-point 64 :   0.0987 0.0000 0.0987  plane waves:    3488
 k-point 65 :   0.1008 0.0000 0.1008  plane waves:    3488
 k-point 66 :   0.1029 0.0000 0.1029  plane waves:    3488
 k-point 67 :   0.1050 0.0000 0.1050  plane waves:    3488
 k-point 68 :   0.1071 0.0000 0.1071  plane waves:    3488
 k-point 69 :   0.1092 0.0000 0.1092  plane waves:    3488
 k-point 70 :   0.1113 0.0000 0.1113  plane waves:    3488
 k-point 71 :   0.1134 0.0000 0.1134  plane waves:    3488
 k-point 72 :   0.1155 0.0000 0.1155  plane waves:    3480
 k-point 73 :   0.1176 0.0000 0.1176  plane waves:    3480
 k-point 74 :   0.1197 0.0000 0.1197  plane waves:    3480
 k-point 75 :   0.1218 0.0000 0.1218  plane waves:    3480
 k-point 76 :   0.1239 0.0000 0.1239  plane waves:    3480
 k-point 77 :   0.1261 0.0000 0.1261  plane waves:    3480
 k-point 78 :   0.1282 0.0000 0.1282  plane waves:    3480
 k-point 79 :   0.1303 0.0000 0.1303  plane waves:    3480
 k-point 80 :   0.1324 0.0000 0.1324  plane waves:    3480
 k-point 81 :   0.1345 0.0000 0.1345  plane waves:    3480
 k-point 82 :   0.1366 0.0000 0.1366  plane waves:    3480
 k-point 83 :   0.1387 0.0000 0.1387  plane waves:    3496
 k-point 84 :   0.1408 0.0000 0.1408  plane waves:    3496
 k-point 85 :   0.1429 0.0000 0.1429  plane waves:    3496
 k-point 86 :   0.1450 0.0000 0.1450  plane waves:    3496
 k-point 87 :   0.1471 0.0000 0.1471  plane waves:    3496
 k-point 88 :   0.1492 0.0000 0.1492  plane waves:    3496
 k-point 89 :   0.1513 0.0000 0.1513  plane waves:    3472
 k-point 90 :   0.1534 0.0000 0.1534  plane waves:    3472
 k-point 91 :   0.1555 0.0000 0.1555  plane waves:    3472
 k-point 92 :   0.1576 0.0000 0.1576  plane waves:    3472
 k-point 93 :   0.1597 0.0000 0.1597  plane waves:    3472
 k-point 94 :   0.1618 0.0000 0.1618  plane waves:    3472
 k-point 95 :   0.1639 0.0000 0.1639  plane waves:    3472
 k-point 96 :   0.1660 0.0000 0.1660  plane waves:    3472
 k-point 97 :   0.1681 0.0000 0.1681  plane waves:    3472
 k-point 98 :   0.1702 0.0000 0.1702  plane waves:    3488
 k-point 99 :   0.1723 0.0000 0.1723  plane waves:    3488
 k-point ** :   0.1744 0.0000 0.1744  plane waves:    3488
 k-point ** :   0.1765 0.0000 0.1765  plane waves:    3496
 k-point ** :   0.1786 0.0000 0.1786  plane waves:    3496
 k-point ** :   0.1807 0.0000 0.1807  plane waves:    3496
 k-point ** :   0.1828 0.0000 0.1828  plane waves:    3496
 k-point ** :   0.1849 0.0000 0.1849  plane waves:    3496
 k-point ** :   0.1870 0.0000 0.1870  plane waves:    3496
 k-point ** :   0.1891 0.0000 0.1891  plane waves:    3488
 k-point ** :   0.1912 0.0000 0.1912  plane waves:    3488
 k-point ** :   0.1933 0.0000 0.1933  plane waves:    3488
 k-point ** :   0.1954 0.0000 0.1954  plane waves:    3472
 k-point ** :   0.1975 0.0000 0.1975  plane waves:    3472
 k-point ** :   0.1996 0.0000 0.1996  plane waves:    3472
 k-point ** :   0.2017 0.0000 0.2017  plane waves:    3472
 k-point ** :   0.2038 0.0000 0.2038  plane waves:    3472
 k-point ** :   0.2059 0.0000 0.2059  plane waves:    3472
 k-point ** :   0.2080 0.0000 0.2080  plane waves:    3472
 k-point ** :   0.2101 0.0000 0.2101  plane waves:    3472
 k-point ** :   0.2122 0.0000 0.2122  plane waves:    3472
 k-point ** :   0.2143 0.0000 0.2143  plane waves:    3472
 k-point ** :   0.2164 0.0000 0.2164  plane waves:    3472
 k-point ** :   0.2185 0.0000 0.2185  plane waves:    3472
 k-point ** :   0.2206 0.0000 0.2206  plane waves:    3472
 k-point ** :   0.2227 0.0000 0.2227  plane waves:    3472
 k-point ** :   0.2248 0.0000 0.2248  plane waves:    3472
 k-point ** :   0.2269 0.0000 0.2269  plane waves:    3472
 k-point ** :   0.2290 0.0000 0.2290  plane waves:    3472
 k-point ** :   0.2311 0.0000 0.2311  plane waves:    3472
 k-point ** :   0.2332 0.0000 0.2332  plane waves:    3472
 k-point ** :   0.2353 0.0000 0.2353  plane waves:    3456
 k-point ** :   0.2374 0.0000 0.2374  plane waves:    3432
 k-point ** :   0.2395 0.0000 0.2395  plane waves:    3432
 k-point ** :   0.2416 0.0000 0.2416  plane waves:    3432
 k-point ** :   0.2437 0.0000 0.2437  plane waves:    3432
 k-point ** :   0.2458 0.0000 0.2458  plane waves:    3432
 k-point ** :   0.2479 0.0000 0.2479  plane waves:    3432
 k-point ** :   0.2500 0.0000 0.2500  plane waves:    3432
 k-point ** :   0.2521 0.0000 0.2521  plane waves:    3432
 k-point ** :   0.2542 0.0000 0.2542  plane waves:    3432
 k-point ** :   0.2563 0.0000 0.2563  plane waves:    3432
 k-point ** :   0.2584 0.0000 0.2584  plane waves:    3432
 k-point ** :   0.2605 0.0000 0.2605  plane waves:    3432
 k-point ** :   0.2626 0.0000 0.2626  plane waves:    3440
 k-point ** :   0.2647 0.0000 0.2647  plane waves:    3440
 k-point ** :   0.2668 0.0000 0.2668  plane waves:    3440
 k-point ** :   0.2689 0.0000 0.2689  plane waves:    3440
 k-point ** :   0.2710 0.0000 0.2710  plane waves:    3440
 k-point ** :   0.2731 0.0000 0.2731  plane waves:    3448
 k-point ** :   0.2752 0.0000 0.2752  plane waves:    3448
 k-point ** :   0.2773 0.0000 0.2773  plane waves:    3448
 k-point ** :   0.2794 0.0000 0.2794  plane waves:    3448
 k-point ** :   0.2815 0.0000 0.2815  plane waves:    3448
 k-point ** :   0.2836 0.0000 0.2836  plane waves:    3448
 k-point ** :   0.2857 0.0000 0.2857  plane waves:    3448
 k-point ** :   0.2878 0.0000 0.2878  plane waves:    3448
 k-point ** :   0.2899 0.0000 0.2899  plane waves:    3456
 k-point ** :   0.2920 0.0000 0.2920  plane waves:    3456
 k-point ** :   0.2941 0.0000 0.2941  plane waves:    3456
 k-point ** :   0.2962 0.0000 0.2962  plane waves:    3456
 k-point ** :   0.2983 0.0000 0.2983  plane waves:    3440
 k-point ** :   0.3004 0.0000 0.3004  plane waves:    3440
 k-point ** :   0.3025 0.0000 0.3025  plane waves:    3440
 k-point ** :   0.3046 0.0000 0.3046  plane waves:    3440
 k-point ** :   0.3067 0.0000 0.3067  plane waves:    3440
 k-point ** :   0.3088 0.0000 0.3088  plane waves:    3440
 k-point ** :   0.3109 0.0000 0.3109  plane waves:    3440
 k-point ** :   0.3130 0.0000 0.3130  plane waves:    3440
 k-point ** :   0.3151 0.0000 0.3151  plane waves:    3440
 k-point ** :   0.3172 0.0000 0.3172  plane waves:    3440
 k-point ** :   0.3193 0.0000 0.3193  plane waves:    3456
 k-point ** :   0.3214 0.0000 0.3214  plane waves:    3456
 k-point ** :   0.3235 0.0000 0.3235  plane waves:    3456
 k-point ** :   0.3256 0.0000 0.3256  plane waves:    3456
 k-point ** :   0.3277 0.0000 0.3277  plane waves:    3456
 k-point ** :   0.3298 0.0000 0.3298  plane waves:    3456
 k-point ** :   0.3319 0.0000 0.3319  plane waves:    3456
 k-point ** :   0.3340 0.0000 0.3340  plane waves:    3456
 k-point ** :   0.3361 0.0000 0.3361  plane waves:    3456
 k-point ** :   0.3382 0.0000 0.3382  plane waves:    3456
 k-point ** :   0.3403 0.0000 0.3403  plane waves:    3456
 k-point ** :   0.3424 0.0000 0.3424  plane waves:    3456
 k-point ** :   0.3445 0.0000 0.3445  plane waves:    3456
 k-point ** :   0.3466 0.0000 0.3466  plane waves:    3456
 k-point ** :   0.3487 0.0000 0.3487  plane waves:    3456
 k-point ** :   0.3508 0.0000 0.3508  plane waves:    3448
 k-point ** :   0.3529 0.0000 0.3529  plane waves:    3448
 k-point ** :   0.3550 0.0000 0.3550  plane waves:    3448
 k-point ** :   0.3571 0.0000 0.3571  plane waves:    3448
 k-point ** :   0.3592 0.0000 0.3592  plane waves:    3448
 k-point ** :   0.3613 0.0000 0.3613  plane waves:    3464
 k-point ** :   0.3634 0.0000 0.3634  plane waves:    3464
 k-point ** :   0.3655 0.0000 0.3655  plane waves:    3464
 k-point ** :   0.3676 0.0000 0.3676  plane waves:    3456
 k-point ** :   0.3697 0.0000 0.3697  plane waves:    3456
 k-point ** :   0.3718 0.0000 0.3718  plane waves:    3456
 k-point ** :   0.3739 0.0000 0.3739  plane waves:    3456
 k-point ** :   0.3761 0.0000 0.3761  plane waves:    3456
 k-point ** :   0.3782 0.0000 0.3782  plane waves:    3456
 k-point ** :   0.3803 0.0000 0.3803  plane waves:    3456
 k-point ** :   0.3824 0.0000 0.3824  plane waves:    3456
 k-point ** :   0.3845 0.0000 0.3845  plane waves:    3456
 k-point ** :   0.3866 0.0000 0.3866  plane waves:    3456
 k-point ** :   0.3887 0.0000 0.3887  plane waves:    3456
 k-point ** :   0.3908 0.0000 0.3908  plane waves:    3456
 k-point ** :   0.3929 0.0000 0.3929  plane waves:    3456
 k-point ** :   0.3950 0.0000 0.3950  plane waves:    3456
 k-point ** :   0.3971 0.0000 0.3971  plane waves:    3472
 k-point ** :   0.3992 0.0000 0.3992  plane waves:    3472
 k-point ** :   0.4013 0.0000 0.4013  plane waves:    3472
 k-point ** :   0.4034 0.0000 0.4034  plane waves:    3456
 k-point ** :   0.4055 0.0000 0.4055  plane waves:    3456
 k-point ** :   0.4076 0.0000 0.4076  plane waves:    3456
 k-point ** :   0.4097 0.0000 0.4097  plane waves:    3456
 k-point ** :   0.4118 0.0000 0.4118  plane waves:    3456
 k-point ** :   0.4139 0.0000 0.4139  plane waves:    3456
 k-point ** :   0.4160 0.0000 0.4160  plane waves:    3456
 k-point ** :   0.4181 0.0000 0.4181  plane waves:    3456
 k-point ** :   0.4202 0.0000 0.4202  plane waves:    3456
 k-point ** :   0.4223 0.0000 0.4223  plane waves:    3456
 k-point ** :   0.4244 0.0000 0.4244  plane waves:    3456
 k-point ** :   0.4265 0.0000 0.4265  plane waves:    3456
 k-point ** :   0.4286 0.0000 0.4286  plane waves:    3456
 k-point ** :   0.4307 0.0000 0.4307  plane waves:    3456
 k-point ** :   0.4328 0.0000 0.4328  plane waves:    3456
 k-point ** :   0.4349 0.0000 0.4349  plane waves:    3440
 k-point ** :   0.4370 0.0000 0.4370  plane waves:    3440
 k-point ** :   0.4391 0.0000 0.4391  plane waves:    3448
 k-point ** :   0.4412 0.0000 0.4412  plane waves:    3448
 k-point ** :   0.4433 0.0000 0.4433  plane waves:    3448
 k-point ** :   0.4454 0.0000 0.4454  plane waves:    3448
 k-point ** :   0.4475 0.0000 0.4475  plane waves:    3464
 k-point ** :   0.4496 0.0000 0.4496  plane waves:    3464
 k-point ** :   0.4517 0.0000 0.4517  plane waves:    3464
 k-point ** :   0.4538 0.0000 0.4538  plane waves:    3464
 k-point ** :   0.4559 0.0000 0.4559  plane waves:    3464
 k-point ** :   0.4580 0.0000 0.4580  plane waves:    3464
 k-point ** :   0.4601 0.0000 0.4601  plane waves:    3464
 k-point ** :   0.4622 0.0000 0.4622  plane waves:    3464
 k-point ** :   0.4643 0.0000 0.4643  plane waves:    3464
 k-point ** :   0.4664 0.0000 0.4664  plane waves:    3464
 k-point ** :   0.4685 0.0000 0.4685  plane waves:    3464
 k-point ** :   0.4706 0.0000 0.4706  plane waves:    3448
 k-point ** :   0.4727 0.0000 0.4727  plane waves:    3448
 k-point ** :   0.4748 0.0000 0.4748  plane waves:    3448
 k-point ** :   0.4769 0.0000 0.4769  plane waves:    3448
 k-point ** :   0.4790 0.0000 0.4790  plane waves:    3448
 k-point ** :   0.4811 0.0000 0.4811  plane waves:    3448
 k-point ** :   0.4832 0.0000 0.4832  plane waves:    3448
 k-point ** :   0.4853 0.0000 0.4853  plane waves:    3448
 k-point ** :   0.4874 0.0000 0.4874  plane waves:    3448
 k-point ** :   0.4895 0.0000 0.4895  plane waves:    3448
 k-point ** :   0.4916 0.0000 0.4916  plane waves:    3448
 k-point ** :   0.4937 0.0000 0.4937  plane waves:    3448
 k-point ** :   0.4958 0.0000 0.4958  plane waves:    3448
 k-point ** :   0.4979 0.0000 0.4979  plane waves:    3448

 maximum and minimum number of plane-waves per node :       166      112

 maximum number of plane-waves:      3550
 maximum index in each direction: 
   IXMAX=    8   IYMAX=    8   IZMAX=    8
   IXMIN=   -8   IYMIN=   -8   IZMIN=   -8

 NGX is ok and might be reduce to  34
 NGY is ok and might be reduce to  34
 NGZ is ok and might be reduce to  34

 parallel 3D FFT for wavefunctions:
    minimum data exchange during FFTs selected (reduces bandwidth)
 parallel 3D FFT for charge:
    minimum data exchange during FFTs selected (reduces bandwidth)


 total amount of memory used by VASP on root node    61617. kBytes
========================================================================

   base      :      30000. kBytes
   nonl-proj :       5415. kBytes
   fftplans  :       1139. kBytes
   grid      :       4064. kBytes
   one-center:         62. kBytes
   wavefun   :      20937. kBytes
 
     INWAV:  cpu time    0.0000: real time    0.0000
 Broyden mixing: mesh for mixing (old mesh)
   NGX = 17   NGY = 17   NGZ = 17
  (NGX  = 72   NGY  = 72   NGZ  = 72)
  gives a total of   4913 points

 initial charge density was supplied:
 charge density of overlapping atoms calculated
 number of electron      18.0000000 magnetization       2.0000000      2.0000000      2.0000000
 keeping initial charge density in first step


--------------------------------------------------------------------------------------------------------


 Maximum index for augmentation-charges         1676 (set IRDMAX)


--------------------------------------------------------------------------------------------------------


 First call to EWALD:  gamma=   0.434
 Maximum number of real-space cells 3x 3x 3
 Maximum number of reciprocal cells 3x 3x 3

 FEWALD executed in parallel
    FEWALD:  cpu time    0.0040: real time    0.0014


----------------------------------------- Iteration    1(   1)  ---------------------------------------


    POTLOK:  cpu time    0.0400: real time    0.0407
    SETDIJ:  cpu time    0.0120: real time    0.0107
     EDDAV:  cpu time    7.9165: real time    7.9235
       DOS:  cpu time    0.0080: real time    0.0105
    --------------------------------------------
      LOOP:  cpu time    7.9805: real time    8.0080

 eigenvalue-minimisations  : 14232
 total energy-change (2. order) : 0.1098431E+03  (-0.8037615E+03)
 number of electron      18.0000000 magnetization       2.0000000      2.0000000      2.0000000
 augmentation part       18.0000000 magnetization       2.0000000      2.0000000      2.0000000

 Free energy of the ion-electron system (eV)
  ---------------------------------------------------
  alpha Z        PSCENC =        50.17222034
  Ewald energy   TEWEN  =     -1044.83138452
  -Hartree energ DENC   =      -510.12304479
  -exchange      EXHF   =         0.00000000
  -V(xc)+E(xc)   XCENC  =       -22.14237255
  PAW double counting   =      1403.96929583    -1331.69227184
  entropy T*S    EENTRO =        -0.00009615
  eigenvalues    EBANDS =        48.04416316
  atomic energy  EATOM  =      1516.44661579
  Solvation  Ediel_sol  =         0.00000000
  ---------------------------------------------------
  free energy    TOTEN  =       109.84312528 eV

  energy without entropy =      109.84322142  energy(sigma->0) =      109.84317335


--------------------------------------------------------------------------------------------------------




----------------------------------------- Iteration    1(   2)  ---------------------------------------


     EDDAV:  cpu time    8.4205: real time    8.4272
       DOS:  cpu time    0.0040: real time    0.0030
    --------------------------------------------
      LOOP:  cpu time    8.4285: real time    8.4348

 eigenvalue-minimisations  : 15588
 total energy-change (2. order) :-0.1087562E+03  (-0.1050185E+03)
 number of electron      18.0000000 magnetization       2.0000000      2.0000000      2.0000000
 augmentation part       18.0000000 magnetization       2.0000000      2.0000000      2.0000000

 Free energy of the ion-electron system (eV)
  ---------------------------------------------------
  alpha Z        PSCENC =        50.17222034
  Ewald energy   TEWEN  =     -1044.83138452
  -Hartree energ DENC   =      -510.12304479
  -exchange      EXHF   =         0.00000000
  -V(xc)+E(xc)   XCENC  =       -22.14237255
  PAW double counting   =      1403.96929583    -1331.69227184
  entropy T*S    EENTRO =        -0.00000000
  eigenvalues    EBANDS =       -60.71213193
  atomic energy  EATOM  =      1516.44661579
  Solvation  Ediel_sol  =         0.00000000
  ---------------------------------------------------
  free energy    TOTEN  =         1.08692633 eV

  energy without entropy =        1.08692633  energy(sigma->0) =        1.08692633


--------------------------------------------------------------------------------------------------------




----------------------------------------- Iteration    1(   3)  ---------------------------------------


     EDDAV:  cpu time    8.9486: real time    8.9527
       DOS:  cpu time    0.0040: real time    0.0030
    --------------------------------------------
      LOOP:  cpu time    8.9526: real time    8.9602

 eigenvalue-minimisations  : 17004
 total energy-change (2. order) :-0.5240846E+01  (-0.5205540E+01)
 number of electron      18.0000000 magnetization       2.0000000      2.0000000      2.0000000
 augmentation part       18.0000000 magnetization       2.0000000      2.0000000      2.0000000

 Free energy of the ion-electron system (eV)
  ---------------------------------------------------
  alpha Z        PSCENC =        50.17222034
  Ewald energy   TEWEN  =     -1044.83138452
  -Hartree energ DENC   =      -510.12304479
  -exchange      EXHF   =         0.00000000
  -V(xc)+E(xc)   XCENC  =       -22.14237255
  PAW double counting   =      1403.96929583    -1331.69227184
  entropy T*S    EENTRO =        -0.00000000
  eigenvalues    EBANDS =       -65.95297806
  atomic energy  EATOM  =      1516.44661579
  Solvation  Ediel_sol  =         0.00000000
  ---------------------------------------------------
  free energy    TOTEN  =        -4.15391980 eV

  energy without entropy =       -4.15391980  energy(sigma->0) =       -4.15391980


--------------------------------------------------------------------------------------------------------




----------------------------------------- Iteration    1(   4)  ---------------------------------------


     EDDAV:  cpu time    9.3286: real time    9.3336
       DOS:  cpu time    0.0040: real time    0.0036
    --------------------------------------------
      LOOP:  cpu time    9.3326: real time   10.6746

 eigenvalue-minimisations  : 17972
 total energy-change (2. order) :-0.6912740E-01  (-0.6908872E-01)
 number of electron      18.0000000 magnetization       2.0000000      2.0000000      2.0000000
 augmentation part       18.0000000 magnetization       2.0000000      2.0000000      2.0000000

 Free energy of the ion-electron system (eV)
  ---------------------------------------------------
  alpha Z        PSCENC =        50.17222034
  Ewald energy   TEWEN  =     -1044.83138452
  -Hartree energ DENC   =      -510.12304479
  -exchange      EXHF   =         0.00000000
  -V(xc)+E(xc)   XCENC  =       -22.14237255
  PAW double counting   =      1403.96929583    -1331.69227184
  entropy T*S    EENTRO =        -0.00000000
  eigenvalues    EBANDS =       -66.02210547
  atomic energy  EATOM  =      1516.44661579
  Solvation  Ediel_sol  =         0.00000000
  ---------------------------------------------------
  free energy    TOTEN  =        -4.22304721 eV

  energy without entropy =       -4.22304721  energy(sigma->0) =       -4.22304721


--------------------------------------------------------------------------------------------------------




----------------------------------------- Iteration    1(   5)  ---------------------------------------


     EDDAV:  cpu time    8.5525: real time    8.5564
       DOS:  cpu time    0.0040: real time    0.0031
 


 total charge     
 
# of ion     s       p       d       tot
----------------------------------------
  1        0.423   0.283   9.496  10.202
  2        1.377   2.200   0.023   3.600
------------------------------------------------
tot        1.800   2.483   9.519  13.801
 


 magnetization (x)
 
# of ion     s       p       d       tot
----------------------------------------
  1       -0.005  -0.005   0.007  -0.003
  2        0.009   0.034  -0.001   0.042
------------------------------------------------
tot        0.004   0.030   0.006   0.039
 


 magnetization (y)
 
# of ion     s       p       d       tot
----------------------------------------
  1       -0.015   0.001   0.005  -0.009
  2        0.009   0.033  -0.000   0.042
------------------------------------------------
tot       -0.006   0.034   0.005   0.033
 


 magnetization (z)
 
# of ion     s       p       d       tot
----------------------------------------
  1        0.001  -0.007   0.007   0.001
  2        0.008   0.033  -0.000   0.041
------------------------------------------------
tot        0.010   0.026   0.007   0.043
 
    CHARGE:  cpu time    0.0760: real time    0.0756
    MIXING:  cpu time    0.0040: real time    0.0024
    --------------------------------------------
      LOOP:  cpu time    8.6565: real time    8.7554

 eigenvalue-minimisations  : 15940
 total energy-change (2. order) :-0.6836516E-03  (-0.6836416E-03)
 number of electron      17.9999997 magnetization      -0.3526708     -0.3526708     -0.3526708
 augmentation part        4.4625960 magnetization      -0.3475973     -0.3475973     -0.3475973

 Broyden mixing:
  rms(total) = 0.11280E+01    rms(broyden)= 0.11279E+01
  rms(prec ) = 0.13117E+01
  weight for this iteration     100.00

 Free energy of the ion-electron system (eV)
  ---------------------------------------------------
  alpha Z        PSCENC =        50.17222034
  Ewald energy   TEWEN  =     -1044.83138452
  -Hartree energ DENC   =      -510.12304479
  -exchange      EXHF   =         0.00000000
  -V(xc)+E(xc)   XCENC  =       -22.14237255
  PAW double counting   =      1403.96929583    -1331.69227184
  entropy T*S    EENTRO =        -0.00000000
  eigenvalues    EBANDS =       -66.02278912
  atomic energy  EATOM  =      1516.44661579
  Solvation  Ediel_sol  =         0.00000000
  ---------------------------------------------------
  free energy    TOTEN  =        -4.22373086 eV

  energy without entropy =       -4.22373086  energy(sigma->0) =       -4.22373086


--------------------------------------------------------------------------------------------------------




----------------------------------------- Iteration    1(   6)  ---------------------------------------


    POTLOK:  cpu time    0.0400: real time    0.0395
    SETDIJ:  cpu time    0.0120: real time    0.0099
     EDDAV:  cpu time    8.0365: real time    8.0407
       DOS:  cpu time    0.0000: real time    0.0034
    CHARGE:  cpu time    0.0760: real time    0.0749
    MIXING:  cpu time    0.0040: real time    0.0024
    --------------------------------------------
      LOOP:  cpu time    8.1685: real time    8.1762

 eigenvalue-minimisations  : 14660
 total energy-change (2. order) :-0.6336277E+00  (-0.5476559E-01)
 number of electron      17.9999996 magnetization       0.0138160      0.0138160      0.0138160
 augmentation part        4.5462020 magnetization       0.0014247      0.0014247      0.0014247

 Broyden mixing:
  rms(total) = 0.57224E+00    rms(broyden)= 0.57224E+00
  rms(prec ) = 0.63520E+00
  weight for this iteration     100.00

 eigenvalues of (default mixing * dielectric matrix)
  average eigenvalue GAMMA=   0.7572
  0.7572

 Free energy of the ion-electron system (eV)
  ---------------------------------------------------
  alpha Z        PSCENC =        50.17222034
  Ewald energy   TEWEN  =     -1044.83138452
  -Hartree energ DENC   =      -504.35780422
  -exchange      EXHF   =         0.00000000
  -V(xc)+E(xc)   XCENC  =       -22.62581735
  PAW double counting   =      1531.62792790    -1458.89995214
  entropy T*S    EENTRO =        -0.00000000
  eigenvalues    EBANDS =       -72.38916438
  atomic energy  EATOM  =      1516.44661579
  Solvation  Ediel_sol  =         0.00000000
  ---------------------------------------------------
  free energy    TOTEN  =        -4.85735859 eV

  energy without entropy =       -4.85735859  energy(sigma->0) =       -4.85735859


--------------------------------------------------------------------------------------------------------




----------------------------------------- Iteration    1(   7)  ---------------------------------------


    POTLOK:  cpu time    0.0400: real time    0.0394
    SETDIJ:  cpu time    0.0120: real time    0.0096
     EDDAV:  cpu time    7.9205: real time    7.9261
       DOS:  cpu time    0.0040: real time    0.0032
    CHARGE:  cpu time    0.0720: real time    0.0749
    MIXING:  cpu time    0.0040: real time    0.0022
    --------------------------------------------
      LOOP:  cpu time    8.0525: real time   11.4795

 eigenvalue-minimisations  : 14340
 total energy-change (2. order) :-0.3212954E-01  (-0.2333636E-01)
 number of electron      17.9999996 magnetization       0.0427339      0.0427339      0.0427339
 augmentation part        4.5739956 magnetization       0.0455553      0.0455553      0.0455553

 Broyden mixing:
  rms(total) = 0.34623E+00    rms(broyden)= 0.34623E+00
  rms(prec ) = 0.37906E+00
  weight for this iteration     100.00

 eigenvalues of (default mixing * dielectric matrix)
  average eigenvalue GAMMA=   0.8546
  1.0209  0.6882

 Free energy of the ion-electron system (eV)
  ---------------------------------------------------
  alpha Z        PSCENC =        50.17222034
  Ewald energy   TEWEN  =     -1044.83138452
  -Hartree energ DENC   =      -503.45495250
  -exchange      EXHF   =         0.00000000
  -V(xc)+E(xc)   XCENC  =       -22.66550963
  PAW double counting   =      1608.40207714    -1535.67094038
  entropy T*S    EENTRO =        -0.00000000
  eigenvalues    EBANDS =       -73.28761437
  atomic energy  EATOM  =      1516.44661579
  Solvation  Ediel_sol  =         0.00000000
  ---------------------------------------------------
  free energy    TOTEN  =        -4.88948814 eV

  energy without entropy =       -4.88948814  energy(sigma->0) =       -4.88948814


--------------------------------------------------------------------------------------------------------




----------------------------------------- Iteration    1(   8)  ---------------------------------------


    POTLOK:  cpu time    0.0400: real time    0.0393
    SETDIJ:  cpu time    0.0120: real time    0.0096
     EDDAV:  cpu time    8.0725: real time    8.0792
       DOS:  cpu time    0.0040: real time    0.0031
    CHARGE:  cpu time    0.0760: real time    0.0750
    MIXING:  cpu time    0.0000: real time    0.0023
    --------------------------------------------
      LOOP:  cpu time    8.2045: real time    8.2513

 eigenvalue-minimisations  : 14756
 total energy-change (2. order) : 0.9052600E-03  (-0.2170153E-02)
 number of electron      17.9999996 magnetization       0.0018614      0.0018614      0.0018614
 augmentation part        4.5778665 magnetization       0.0036905      0.0036905      0.0036905

 Broyden mixing:
  rms(total) = 0.17635E+00    rms(broyden)= 0.17635E+00
  rms(prec ) = 0.18874E+00
  weight for this iteration     100.00

 eigenvalues of (default mixing * dielectric matrix)
  average eigenvalue GAMMA=   1.2318
  2.3425  0.7705  0.5825

 Free energy of the ion-electron system (eV)
  ---------------------------------------------------
[...]
  0.003   0.000   0.010   0.000   0.013   0.000   0.010   0.000   0.000   0.000   0.002   0.000   0.009   0.000   0.013   0.000
  0.010   0.000   0.003   0.000  -0.007   0.000   0.010   0.000   0.011   0.000   0.009   0.000   0.002   0.000  -0.006   0.000
 total augmentation occupancy for first ion, spin component:           1
  4.256  -0.303   0.416  -0.303  -0.005  -2.146   0.290  -0.392   0.290   0.004   0.209  -0.078  -0.101   0.535  -0.100   0.016
 -0.303   4.256  -0.203  -0.303   0.363   0.290  -2.146   0.192   0.290  -0.341   0.209  -0.078  -0.100  -0.101   0.535   0.017
  0.416  -0.203   2.673  -0.212   0.000  -0.392   0.192  -0.624   0.200  -0.000   0.000   0.000  -0.037   0.080  -0.043  -0.007
 -0.303  -0.303  -0.212   4.256  -0.357   0.290   0.290   0.200  -2.146   0.337   0.209  -0.078   0.535  -0.100  -0.101  -0.079
 -0.005   0.363  -0.000  -0.357   2.673   0.004  -0.342   0.000   0.337  -0.624   0.000   0.000  -0.071   0.003   0.067  -0.011
 -2.146   0.290  -0.392   0.290   0.004   2.031  -0.277   0.368  -0.277  -0.004  -0.181   0.072   0.078  -0.512   0.078  -0.000
  0.290  -2.146   0.192   0.290  -0.342  -0.277   2.031  -0.181  -0.277   0.321  -0.181   0.072   0.078   0.078  -0.512  -0.000
 -0.392   0.192  -0.624   0.200   0.000   0.368  -0.181   0.568  -0.187   0.000   0.000   0.000   0.045  -0.094   0.050  -0.006
  0.290   0.290   0.200  -2.146   0.337  -0.277  -0.277  -0.187   2.031  -0.317  -0.181   0.072  -0.512   0.078   0.078   0.090
  0.004  -0.341  -0.000   0.337  -0.624  -0.004   0.321   0.000  -0.317   0.568   0.000   0.000   0.083  -0.003  -0.080  -0.011
  0.209   0.209   0.000   0.209   0.000  -0.181  -0.181   0.000  -0.181   0.000   2.981  -0.780  -0.058  -0.058  -0.058   0.015
 -0.078  -0.078   0.000  -0.078   0.000   0.072   0.072   0.000   0.072   0.000  -0.780   0.243   0.008   0.008   0.008  -0.000
 -0.101  -0.100  -0.037   0.535  -0.071   0.078   0.078   0.045  -0.512   0.083  -0.058   0.008   0.212   0.005   0.005  -0.038
  0.535  -0.101   0.080  -0.100   0.003  -0.512   0.078  -0.094   0.078  -0.003  -0.058   0.008   0.005   0.212   0.005  -0.005
 -0.100   0.535  -0.043  -0.101   0.067   0.078  -0.512   0.050   0.078  -0.080  -0.058   0.008   0.005   0.005   0.212  -0.005
  0.016   0.017  -0.007  -0.079  -0.011  -0.000  -0.000  -0.006   0.090  -0.011   0.015  -0.000  -0.038  -0.005  -0.005   0.010
 -0.079   0.016   0.013   0.017  -0.000   0.090  -0.000   0.012  -0.000   0.000   0.015  -0.000  -0.005  -0.038  -0.005   0.002
  0.017  -0.079  -0.007   0.016   0.011  -0.000   0.090  -0.006  -0.000   0.011   0.015  -0.000  -0.005  -0.005  -0.038   0.002
 total augmentation occupancy for first ion, spin component:           2
  0.007   0.001   0.003  -0.000   0.000  -0.006  -0.000  -0.003   0.000  -0.000   0.004   0.004   0.001   0.001  -0.000  -0.001
  0.001   0.002   0.002  -0.001   0.001  -0.001  -0.002  -0.002   0.001  -0.001   0.000   0.000  -0.002   0.003   0.001   0.003
  0.003   0.002   0.009  -0.003   0.002  -0.003  -0.002  -0.009   0.003  -0.002   0.002   0.001   0.001   0.001  -0.000   0.000
 -0.000  -0.001  -0.003  -0.002  -0.005   0.000   0.001   0.003   0.001   0.005  -0.001  -0.005  -0.001  -0.001   0.001   0.004
  0.000   0.001   0.002  -0.005   0.003   0.000  -0.001  -0.001   0.005  -0.002   0.000   0.001  -0.001   0.001  -0.000   0.002
 -0.006  -0.001  -0.003   0.000   0.000   0.005  -0.000   0.003  -0.000  -0.000  -0.004  -0.003  -0.001  -0.000   0.001   0.001
 -0.000  -0.002  -0.002   0.001  -0.001  -0.000   0.003   0.002  -0.001   0.001  -0.000  -0.000   0.002  -0.002  -0.001  -0.002
 -0.003  -0.002  -0.009   0.003  -0.001   0.003   0.002   0.008  -0.003   0.001  -0.002  -0.000  -0.001  -0.001   0.000  -0.000
  0.000   0.001   0.003   0.001   0.005  -0.000  -0.001  -0.003  -0.000  -0.004   0.001   0.005   0.001   0.001  -0.001  -0.004
 -0.000  -0.001  -0.002   0.005  -0.002  -0.000   0.001   0.001  -0.004   0.002  -0.000  -0.000   0.001  -0.001   0.000  -0.002
  0.004   0.000   0.002  -0.001   0.000  -0.004  -0.000  -0.002   0.001  -0.000  -0.001  -0.001  -0.001  -0.000   0.000   0.000
  0.004   0.000   0.001  -0.005   0.001  -0.003  -0.000  -0.000   0.005  -0.000  -0.001   0.000  -0.001   0.000  -0.000   0.000
  0.001  -0.002   0.001  -0.001  -0.001  -0.001   0.002  -0.001   0.001   0.001  -0.001  -0.001  -0.001   0.000  -0.000   0.001
  0.001   0.003   0.001  -0.001   0.001  -0.000  -0.002  -0.001   0.001  -0.001  -0.000   0.000   0.000  -0.001   0.000  -0.000
 -0.000   0.001  -0.000   0.001  -0.000   0.001  -0.001   0.000  -0.001   0.000   0.000  -0.000  -0.000   0.000   0.000  -0.000
 -0.001   0.003   0.000   0.004   0.002   0.001  -0.002  -0.000  -0.004  -0.002   0.000   0.000   0.001  -0.000  -0.000  -0.000
 -0.003  -0.004  -0.002   0.001   0.001   0.003   0.003   0.002  -0.001  -0.001  -0.000  -0.000  -0.000   0.000  -0.001   0.000
 -0.000   0.000   0.000   0.000   0.000   0.000  -0.000  -0.000  -0.000  -0.000  -0.000  -0.000   0.000  -0.000   0.000   0.000
 total augmentation occupancy for first ion, spin component:           3
 -0.002  -0.000   0.006  -0.001   0.000   0.001   0.000  -0.006   0.001   0.000  -0.001  -0.005   0.001  -0.001  -0.001   0.000
 -0.000   0.007  -0.002   0.001   0.002   0.000  -0.006   0.002  -0.000  -0.003   0.004   0.004  -0.000   0.001   0.001  -0.000
  0.006  -0.002   0.006  -0.002  -0.003  -0.006   0.001  -0.005   0.002   0.003  -0.001  -0.001   0.000   0.000  -0.002  -0.000
 -0.001   0.001  -0.002   0.002   0.001   0.001  -0.001   0.002  -0.002  -0.001   0.000   0.000   0.001  -0.002   0.003   0.000
  0.000   0.002  -0.003   0.001   0.006   0.000  -0.003   0.004  -0.001  -0.006   0.002   0.000  -0.000   0.002   0.000   0.000
  0.001   0.000  -0.006   0.001   0.000  -0.000  -0.000   0.006  -0.001  -0.001   0.001   0.005  -0.001   0.001   0.001  -0.000
  0.000  -0.006   0.001  -0.001  -0.003  -0.000   0.005  -0.001  -0.000   0.003  -0.004  -0.003   0.001  -0.001  -0.000   0.000
 -0.006   0.002  -0.005   0.002   0.004   0.006  -0.001   0.005  -0.002  -0.003   0.001   0.000  -0.000  -0.000   0.002   0.000
  0.001  -0.000   0.002  -0.002  -0.001  -0.001  -0.000  -0.002   0.003   0.001  -0.000  -0.000  -0.001   0.002  -0.002  -0.000
  0.000  -0.003   0.003  -0.001  -0.006  -0.001   0.003  -0.003   0.001   0.005  -0.002  -0.000   0.000  -0.002  -0.000  -0.000
 -0.001   0.004  -0.001   0.000   0.002   0.001  -0.004   0.001  -0.000  -0.002  -0.001  -0.001   0.000  -0.001  -0.000  -0.000
 -0.005   0.004  -0.001   0.000   0.000   0.005  -0.003   0.000  -0.000  -0.000  -0.001   0.000  -0.000  -0.001   0.000  -0.000
  0.001  -0.000   0.000   0.001  -0.000  -0.001   0.001  -0.000  -0.001   0.000   0.000  -0.000   0.000  -0.000   0.000   0.000
 -0.001   0.001   0.000  -0.002   0.002   0.001  -0.001  -0.000   0.002  -0.002  -0.001  -0.001  -0.000  -0.001   0.000   0.000
 -0.001   0.001  -0.002   0.003   0.000   0.001  -0.000   0.002  -0.002  -0.000  -0.000   0.000   0.000   0.000  -0.001  -0.000
  0.000  -0.000  -0.000   0.000   0.000  -0.000   0.000   0.000  -0.000  -0.000  -0.000  -0.000   0.000   0.000  -0.000  -0.000
  0.004  -0.001  -0.002   0.003  -0.001  -0.004   0.001   0.002  -0.002   0.001   0.000   0.000  -0.000   0.001  -0.000   0.000
  0.001  -0.003   0.000  -0.004  -0.002  -0.001   0.003  -0.000   0.003   0.002  -0.000  -0.000  -0.001  -0.000   0.000   0.000
 total augmentation occupancy for first ion, spin component:           4
  0.002  -0.001   0.000   0.001  -0.002  -0.002   0.001  -0.000  -0.001   0.002   0.000   0.000   0.003   0.001  -0.002  -0.004
 -0.001  -0.002  -0.003  -0.000   0.005   0.001   0.001   0.003   0.000  -0.005  -0.001  -0.005  -0.001   0.001  -0.001   0.001
  0.000  -0.003   0.003  -0.001   0.002  -0.000   0.003  -0.003   0.002  -0.002  -0.001   0.000   0.001   0.000  -0.002   0.002
  0.001  -0.000  -0.001   0.007  -0.003  -0.000   0.000   0.001  -0.006   0.003   0.004   0.004   0.001  -0.000   0.001  -0.003
 -0.002   0.005   0.002  -0.003   0.009   0.002  -0.005  -0.002   0.002  -0.008  -0.002  -0.001  -0.002   0.000  -0.000   0.001
 -0.002   0.001  -0.000  -0.000   0.002   0.003  -0.001   0.000  -0.000  -0.002  -0.000  -0.000  -0.002  -0.001   0.002   0.003
  0.001   0.001   0.003   0.000  -0.005  -0.001  -0.000  -0.002  -0.000   0.005   0.001   0.005   0.001  -0.001   0.001  -0.001
 -0.000   0.003  -0.003   0.001  -0.002   0.000  -0.002   0.002  -0.002   0.002   0.001  -0.000  -0.001  -0.000   0.001  -0.001
 -0.001   0.000   0.002  -0.006   0.002  -0.000  -0.000  -0.002   0.005  -0.002  -0.004  -0.003  -0.000   0.001  -0.001   0.003
  0.002  -0.005  -0.002   0.003  -0.008  -0.002   0.005   0.002  -0.002   0.008   0.002   0.000   0.002  -0.000   0.001  -0.001
  0.000  -0.001  -0.001   0.004  -0.002  -0.000   0.001   0.001  -0.004   0.002  -0.001  -0.001  -0.000   0.000  -0.001  -0.000
  0.000  -0.005   0.000   0.004  -0.001  -0.000   0.005  -0.000  -0.003   0.000  -0.001   0.000   0.000  -0.000  -0.001  -0.000
  0.003  -0.001   0.001   0.001  -0.002  -0.002   0.001  -0.001  -0.000   0.002  -0.000   0.000  -0.001   0.000   0.000   0.000
  0.001   0.001   0.000  -0.000   0.000  -0.001  -0.001  -0.000   0.001  -0.000   0.000  -0.000   0.000   0.000  -0.000  -0.001
 -0.002  -0.001  -0.002   0.001  -0.000   0.002   0.001   0.001  -0.001   0.001  -0.001  -0.001   0.000  -0.000  -0.001  -0.000
 -0.004   0.001   0.002  -0.003   0.001   0.003  -0.001  -0.001   0.003  -0.001  -0.000  -0.000   0.000  -0.001  -0.000  -0.000
  0.000   0.000  -0.000  -0.000  -0.000  -0.000  -0.000   0.000   0.000   0.000  -0.000  -0.000  -0.000   0.000   0.000   0.000
  0.003   0.004   0.002  -0.001  -0.001  -0.002  -0.004  -0.001   0.001   0.001   0.000   0.000  -0.000  -0.000   0.001   0.000


------------------------ aborting loop because EDIFF is reached ----------------------------------------


 


 total charge     
 
# of ion     s       p       d       tot
----------------------------------------
  1        0.470   0.319   9.532  10.320
  2        1.351   2.062   0.021   3.434
------------------------------------------------
tot        1.820   2.380   9.553  13.754
 


 magnetization (x)
 
# of ion     s       p       d       tot
----------------------------------------
  1        0.000  -0.000   0.000  -0.000
  2       -0.000   0.000  -0.000   0.000
------------------------------------------------
tot        0.000   0.000   0.000   0.000
 


 magnetization (y)
 
# of ion     s       p       d       tot
----------------------------------------
  1       -0.010   0.006  -0.001  -0.005
  2        0.001  -0.001  -0.000  -0.001
------------------------------------------------
tot       -0.010   0.005  -0.001  -0.006
 


 magnetization (z)
 
# of ion     s       p       d       tot
----------------------------------------
  1        0.006  -0.003   0.001   0.003
  2       -0.000   0.001   0.000   0.000
------------------------------------------------
tot        0.005  -0.003   0.001   0.003
 
    CHARGE:  cpu time    0.0760: real time    0.0753
    FORLOC:  cpu time    0.0000: real time    0.0011
    FORNL :  cpu time    0.5800: real time    0.5793
    STRESS:  cpu time    1.0401: real time    1.0411
    FORCOR:  cpu time    0.0400: real time    0.0391
    FORHAR:  cpu time    0.0040: real time    0.0042
    MIXING:  cpu time    0.0040: real time    0.0032
    OFIELD:  cpu time    0.0000: real time    0.0001

  FORCE on cell =-STRESS in cart. coord.  units (eV):
  Direction    XX          YY          ZZ          XY          YZ          ZX
  --------------------------------------------------------------------------------------
  Alpha Z    50.17222    50.17222    50.17222
  Ewald    -348.27726  -348.27726  -348.27726     0.00000     0.00000     0.00000
  Hartree   167.90727   167.90727   167.90727     0.87320     0.87320     0.87320
  E(xc)     -87.43748   -87.43748   -87.43748     0.13932     0.13932     0.13932
  Local     -17.77643   -17.77643   -17.77643     0.76885     0.76883     0.76883
  n-local    23.93258    29.26441    28.36701    -1.50285    -2.77258    -0.89121
  augment     6.35413     6.35413     6.35413     0.57332     0.57334     0.57334
  Kinetic   200.61573   204.14694   204.33708    -1.58273    -3.02534    -1.18522
  Fock        0.00000     0.00000     0.00000     0.00000     0.00000     0.00000
  -------------------------------------------------------------------------------------
  Total       1.16371     1.16371     1.16371    -1.29863    -1.29863    -1.29863
  in kB      27.37450    27.37450    27.37450   -30.54834   -30.54834   -30.54834
  external pressure =       27.37 kB  Pullay stress =        0.00 kB


 VOLUME and BASIS-vectors are now :
 -----------------------------------------------------------------------------
  energy-cutoff  :      500.00
  volume of cell :       68.11
      direct lattice vectors                 reciprocal lattice vectors
     3.241350000  3.241350000  0.000000000     0.154256714  0.154256714  0.154256714
     3.241350000  0.000000000 -3.241350000     0.154256714 -0.154256714 -0.154256714
     0.000000000  3.241350000 -3.241350000    -0.154256714  0.154256714 -0.154256714

  length of vectors
     4.583961130  4.583961130  4.583961130     0.267180466  0.267180466  0.267180466


 FORCES acting on ions
    electron-ion (+dipol)            ewald-force                    non-local-force                 convergence-correction
 -----------------------------------------------------------------------------------------------
   -.173E+01 -.173E+01 -.173E+01   -.744E-14 -.454E-14 0.998E-14   0.116E+01 0.116E+01 0.116E+01   0.323E-03 0.323E-03 0.323E-03
   0.123E+01 0.123E+01 0.123E+01   0.759E-14 0.606E-14 -.102E-13   -.655E+00 -.655E+00 -.655E+00   -.931E-05 -.931E-05 -.931E-05
 -----------------------------------------------------------------------------------------------
   -.505E+00 -.505E+00 -.505E+00   0.152E-15 0.152E-14 -.238E-15   0.505E+00 0.505E+00 0.505E+00   0.313E-03 0.313E-03 0.313E-03
 
 
 POSITION                                       TOTAL-FORCE (eV/Angst)
 -----------------------------------------------------------------------------------
      0.00000      0.00000      0.00000        -0.574236     -0.574236     -0.574236
      1.62068      1.62068     -1.62068         0.574236      0.574236      0.574236
 -----------------------------------------------------------------------------------
    total drift:                               -0.000009     -0.000009     -0.000008


--------------------------------------------------------------------------------------------------------



  FREE ENERGIE OF THE ION-ELECTRON SYSTEM (eV)
  ---------------------------------------------------
  free  energy   TOTEN  =        -4.89035492 eV

  energy  without entropy=       -4.89035492  energy(sigma->0) =       -4.89035492
 


--------------------------------------------------------------------------------------------------------


    POTLOK:  cpu time    0.0480: real time    0.0505


--------------------------------------------------------------------------------------------------------




--------------------------------------------------------------------------------------------------------


 writing wavefunctions
     LOOP+:  cpu time  139.8887: real time  149.2445
    4ORBIT:  cpu time    0.0000: real time    0.0000

 Spin-Orbit-Coupling matrix elements

 Ion:    1  E_soc:     -0.0611241
 l=   1
     0.0000000    -0.0032143    -0.0032143
    -0.0032143     0.0000000    -0.0032143
    -0.0032143    -0.0032143     0.0000000
 l=   2
     0.0000000    -0.0014032     0.0000000    -0.0014032    -0.0055699
    -0.0014032     0.0000000    -0.0041777    -0.0014032    -0.0013921
     0.0000000    -0.0041777     0.0000000    -0.0041771     0.0000000
    -0.0014032    -0.0014032    -0.0041771     0.0000000    -0.0013928
    -0.0055699    -0.0013921     0.0000000    -0.0013928     0.0000000
 l=   3
     0.0000000     0.0000000     0.0000000     0.0000000     0.0000000     0.0000000     0.0000000
     0.0000000     0.0000000     0.0000000     0.0000000     0.0000000     0.0000000     0.0000000
     0.0000000     0.0000000     0.0000000     0.0000000     0.0000000     0.0000000     0.0000000
     0.0000000     0.0000000     0.0000000     0.0000000     0.0000000     0.0000000     0.0000000
     0.0000000     0.0000000     0.0000000     0.0000000     0.0000000     0.0000000     0.0000000
     0.0000000     0.0000000     0.0000000     0.0000000     0.0000000     0.0000000     0.0000000
     0.0000000     0.0000000     0.0000000     0.0000000     0.0000000     0.0000000     0.0000000

 Ion:    2  E_soc:     -0.1971882
 l=   1
     0.0000000    -0.0327888    -0.0327888
    -0.0327888     0.0000000    -0.0327888
    -0.0327888    -0.0327888     0.0000000
 l=   2
     0.0000000    -0.0000309     0.0000000    -0.0000309    -0.0000450
    -0.0000309     0.0000000    -0.0000344    -0.0000309    -0.0000106
     0.0000000    -0.0000344     0.0000000    -0.0000331     0.0000000
    -0.0000309    -0.0000309    -0.0000331     0.0000000    -0.0000119
    -0.0000450    -0.0000106     0.0000000    -0.0000119     0.0000000
 l=   3
     0.0000000     0.0000000     0.0000000     0.0000000     0.0000000     0.0000000     0.0000000
     0.0000000     0.0000000     0.0000000     0.0000000     0.0000000     0.0000000     0.0000000
     0.0000000     0.0000000     0.0000000     0.0000000     0.0000000     0.0000000     0.0000000
     0.0000000     0.0000000     0.0000000     0.0000000     0.0000000     0.0000000     0.0000000
     0.0000000     0.0000000     0.0000000     0.0000000     0.0000000     0.0000000     0.0000000
     0.0000000     0.0000000     0.0000000     0.0000000     0.0000000     0.0000000     0.0000000
     0.0000000     0.0000000     0.0000000     0.0000000     0.0000000     0.0000000     0.0000000
 


 total charge     
 
# of ion     s       p       d       tot
----------------------------------------
  1        0.470   0.319   9.532  10.320
  2        1.351   2.062   0.021   3.434
------------------------------------------------
tot        1.820   2.380   9.553  13.754
 


 magnetization (x)
 
# of ion     s       p       d       tot
----------------------------------------
  1        0.000  -0.000   0.000  -0.000
  2       -0.000   0.000  -0.000   0.000
------------------------------------------------
tot        0.000   0.000   0.000   0.000
 


 magnetization (y)
 
# of ion     s       p       d       tot
----------------------------------------
  1       -0.010   0.006  -0.001  -0.005
  2        0.001  -0.001  -0.000  -0.001
------------------------------------------------
tot       -0.010   0.005  -0.001  -0.006
 


 magnetization (z)
 
# of ion     s       p       d       tot
----------------------------------------
  1        0.006  -0.003   0.001   0.003
  2       -0.000   0.001   0.000   0.000
------------------------------------------------
tot        0.005  -0.003   0.001   0.003
 

 total amount of memory used by VASP on root node    61617. kBytes
========================================================================

   base      :      30000. kBytes
   nonl-proj :       5415. kBytes
   fftplans  :       1139. kBytes
   grid      :       4064. kBytes
   one-center:         62. kBytes
   wavefun   :      20937. kBytes
 
  
  
 General timing and accounting informations for this job:
 ========================================================
  
                  Total CPU time used (sec):      151.581
                            User time (sec):      141.953
                          System time (sec):        9.629
                         Elapsed time (sec):      194.831
  
                   Maximum memory used (kb):       62892.
                   Average memory used (kb):           0.
  
                          Minor page faults:        16446
                          Major page faults:            0
                 Voluntary context switches:         1611
