PROCAR new format
# of k-points:  254         # of bands:  28         # of ions:   2

 k-point    1 :    0.00000000 0.00000000 0.00000000     weight = 0.00462963

band   1 # energy   -8.81732248 # occ.  1.00000000
 
ion      s      p      d    tot
  1  0.063  0.000  0.000  0.063
  2  0.570  0.000  0.000  0.570
tot  0.633  0.000  0.000  0.633
  1  0.036  0.000  0.000  0.036
  2  0.328  0.000  0.000  0.328
tot  0.364  0.000  0.000  0.364
  1  0.036  0.000  0.000  0.036
  2  0.330  0.000  0.000  0.330
tot  0.367  0.000  0.000  0.367
  1  0.036  0.000  0.000  0.036
  2  0.328  0.000  0.000  0.328
tot  0.365  0.000  0.000  0.365
 
band   2 # energy   -8.81700884 # occ.  1.00000000
 
ion      s      p      d    tot
  1  0.063  0.000  0.000  0.063
  2  0.570  0.000  0.000  0.570
tot  0.633  0.000  0.000  0.633
  1 -0.036 -0.000 -0.000 -0.036
  2 -0.328 -0.000 -0.000 -0.328
tot -0.364 -0.000 -0.000 -0.364
  1 -0.036 -0.000 -0.000 -0.036
  2 -0.330 -0.000 -0.000 -0.330
tot -0.367 -0.000 -0.000 -0.367
  1 -0.036 -0.000 -0.000 -0.036
  2 -0.328 -0.000 -0.000 -0.328
tot -0.365 -0.000 -0.000 -0.365
 
band   3 # energy   -6.25835122 # occ.  1.00000000
 
ion      s      p      d    tot
  1  0.000  0.000  0.919  0.920
  2  0.000  0.013  0.001  0.014
tot  0.000  0.013  0.920  0.933
  1 -0.000 -0.000  0.002  0.002
  2 -0.000 -0.003  0.000 -0.003
tot -0.000 -0.003  0.002 -0.001
  1 -0.000 -0.000 -0.009 -0.009
  2 -0.000 -0.003  0.000 -0.003
tot -0.000 -0.003 -0.009 -0.011
  1 -0.000 -0.000 -0.004 -0.004
  2 -0.000 -0.003  0.000 -0.003
tot -0.000 -0.003 -0.004 -0.007
 
band   4 # energy   -6.25827493 # occ.  1.00000000
 
ion      s      p      d    tot
  1  0.000  0.000  0.919  0.920
  2  0.000  0.013  0.001  0.014
tot  0.000  0.013  0.920  0.933
  1  0.000  0.000 -0.004 -0.004
  2  0.000  0.003 -0.000  0.003
tot  0.000  0.003 -0.004 -0.001
  1  0.000  0.000  0.007  0.007
  2  0.000  0.003 -0.000  0.003
tot  0.000  0.003  0.007  0.010
  1  0.000  0.000  0.002  0.002
  2  0.000  0.003 -0.000  0.003
tot  0.000  0.003  0.002  0.005
 
band   5 # energy   -6.25490715 # occ.  1.00000000
 
ion      s      p      d    tot
  1  0.000  0.000  0.919  0.919
  2  0.000  0.013  0.001  0.014
tot  0.000  0.013  0.920  0.933
  1 -0.000 -0.000 -0.361 -0.361
  2 -0.000 -0.006 -0.000 -0.007
tot -0.000 -0.006 -0.361 -0.367
  1 -0.000 -0.000 -0.361 -0.361
  2 -0.000 -0.006 -0.000 -0.007
tot -0.000 -0.006 -0.361 -0.367
  1  0.000 -0.000 -0.361 -0.361
  2  0.000 -0.006 -0.000 -0.007
tot  0.000 -0.006 -0.361 -0.367
 
band   6 # energy   -6.25472457 # occ.  1.00000000
 
ion      s      p      d    tot
  1  0.000  0.000  0.919  0.919
  2  0.000  0.013  0.001  0.014
tot  0.000  0.013  0.920  0.933
  1  0.000  0.000  0.360  0.360
  2  0.000  0.006  0.000  0.007
tot  0.000  0.006  0.360  0.367
  1  0.000  0.000  0.360  0.360
  2  0.000  0.006  0.000  0.007
tot  0.000  0.006  0.360  0.367
  1 -0.000  0.000  0.360  0.360
  2 -0.000  0.006  0.000  0.007
tot -0.000  0.006  0.360  0.367
 
band   7 # energy   -5.70968788 # occ.  1.00000000
 
ion      s      p      d    tot
  1  0.000  0.001  0.894  0.894
  2  0.000  0.026  0.001  0.027
tot  0.000  0.026  0.895  0.921
  1 -0.000  0.000  0.179  0.179
  2 -0.000  0.005  0.000  0.005
tot -0.000  0.005  0.179  0.185
  1 -0.000  0.000  0.176  0.176
  2 -0.000  0.005  0.000  0.005
tot -0.000  0.005  0.176  0.181
  1 -0.000  0.000  0.176  0.176
  2 -0.000  0.005  0.000  0.005
tot -0.000  0.005  0.176  0.181
 
band   8 # energy   -5.70958151 # occ.  1.00000000
 
ion      s      p      d    tot
  1  0.000  0.001  0.894  0.895
  2  0.000  0.026  0.001  0.027
tot  0.000  0.026  0.895  0.921
  1  0.000 -0.000 -0.178 -0.178
  2  0.000 -0.005 -0.000 -0.005
tot  0.000 -0.005 -0.178 -0.183
  1  0.000 -0.000 -0.175 -0.175
  2  0.000 -0.005 -0.000 -0.005
tot  0.000 -0.005 -0.175 -0.180
  1  0.000 -0.000 -0.175 -0.175
  2  0.000 -0.005 -0.000 -0.005
tot  0.000 -0.005 -0.175 -0.180
 
band   9 # energy   -5.49914863 # occ.  1.00000000
 
ion      s      p      d    tot
  1  0.000  0.000  0.935  0.935
  2  0.000  0.006  0.001  0.007
tot  0.000  0.006  0.936  0.942
  1  0.000  0.000 -0.369 -0.369
  2  0.000  0.001 -0.000  0.001
tot  0.000  0.001 -0.370 -0.369
  1  0.000  0.000 -0.369 -0.369
  2  0.000  0.001 -0.000  0.001
tot  0.000  0.001 -0.370 -0.369
  1  0.000  0.000 -0.369 -0.369
  2  0.000  0.001 -0.000  0.001
tot  0.000  0.001 -0.370 -0.369
 
band  10 # energy   -5.49869833 # occ.  1.00000000
 
ion      s      p      d    tot
  1  0.000  0.000  0.935  0.935
  2  0.000  0.006  0.001  0.007
tot  0.000  0.006  0.936  0.942
  1 -0.000 -0.000  0.370  0.370
  2 -0.000 -0.001  0.000 -0.001
tot -0.000 -0.001  0.370  0.369
  1 -0.000 -0.000  0.370  0.370
  2 -0.000 -0.001  0.000 -0.001
tot -0.000 -0.001  0.370  0.369
  1 -0.000 -0.000  0.370  0.370
  2 -0.000 -0.001  0.000 -0.001
tot -0.000 -0.001  0.370  0.369
 
band  11 # energy   -5.49635294 # occ.  1.00000000
 
ion      s      p      d    tot
  1  0.000  0.000  0.935  0.935
  2  0.000  0.006  0.001  0.007
tot  0.000  0.006  0.936  0.942
  1  0.000 -0.000 -0.325 -0.325
  2  0.000 -0.002 -0.000 -0.002
tot  0.000 -0.002 -0.325 -0.327
  1 -0.000 -0.000 -0.324 -0.324
  2 -0.000 -0.002 -0.000 -0.002
tot -0.000 -0.002 -0.325 -0.326
  1 -0.000 -0.000 -0.324 -0.325
  2 -0.000 -0.002 -0.000 -0.002
tot -0.000 -0.002 -0.325 -0.327
 
band  12 # energy   -5.49557826 # occ.  1.00000000
 
ion      s      p      d    tot
  1  0.000  0.000  0.935  0.935
  2  0.000  0.006  0.001  0.007
tot  0.000  0.006  0.936  0.942
  1  0.000  0.000  0.325  0.325
  2  0.000  0.002  0.000  0.002
tot  0.000  0.002  0.325  0.327
  1 -0.000  0.000  0.325  0.325
  2 -0.000  0.002  0.000  0.002
tot -0.000  0.002  0.325  0.327
  1  0.000  0.000  0.325  0.325
  2  0.000  0.002  0.000  0.002
tot  0.000  0.002  0.325  0.327
 
band  13 # energy    1.77962094 # occ.  1.00000000
 
ion      s      p      d    tot
  1  0.000  0.026  0.087  0.113
  2  0.000  0.498  0.000  0.498
tot  0.000  0.524  0.087  0.611
  1 -0.000  0.005  0.015  0.020
  2 -0.000  0.083  0.000  0.083
tot -0.000  0.087  0.015  0.103
  1 -0.000  0.005  0.015  0.020
  2 -0.000  0.083  0.000  0.083
tot -0.000  0.088  0.015  0.103
  1 -0.000  0.005  0.015  0.020
  2 -0.000  0.083  0.000  0.083
tot -0.000  0.088  0.015  0.103
 
band  14 # energy    1.78074100 # occ.  1.00000000
 
ion      s      p      d    tot
  1  0.000  0.026  0.087  0.113
  2  0.000  0.498  0.000  0.498
tot  0.000  0.524  0.087  0.611
  1  0.000 -0.005 -0.015 -0.020
  2  0.000 -0.082 -0.000 -0.083
tot  0.000 -0.087 -0.015 -0.102
  1  0.000 -0.005 -0.015 -0.020
  2  0.000 -0.083 -0.000 -0.083
tot  0.000 -0.088 -0.015 -0.103
  1  0.000 -0.005 -0.015 -0.020
  2  0.000 -0.083 -0.000 -0.083
tot  0.000 -0.087 -0.015 -0.103
 
band  15 # energy    2.60575116 # occ.  1.00000000
 
ion      s      p      d    tot
  1  0.001  0.026  0.074  0.101
  2  0.000  0.494  0.000  0.495
tot  0.001  0.520  0.075  0.596
  1  0.000  0.004  0.012  0.016
  2  0.000  0.084 -0.000  0.085
tot  0.000  0.088  0.012  0.101
  1  0.000  0.004  0.012  0.016
  2  0.000  0.083 -0.000  0.084
tot  0.000  0.087  0.012  0.100
  1  0.000  0.004  0.012  0.016
  2  0.000  0.083 -0.000  0.084
tot  0.000  0.087  0.012  0.100
 
band  16 # energy    2.60662857 # occ.  1.00000000
 
ion      s      p      d    tot
  1  0.001  0.026  0.074  0.101
  2  0.000  0.494  0.000  0.495
tot  0.001  0.520  0.075  0.596
  1 -0.000 -0.004 -0.012 -0.016
  2 -0.000 -0.085  0.000 -0.085
tot -0.000 -0.088 -0.012 -0.101
  1 -0.000 -0.004 -0.012 -0.016
  2 -0.000 -0.084  0.000 -0.084
tot -0.000 -0.087 -0.012 -0.100
  1 -0.000 -0.004 -0.012 -0.016
  2 -0.000 -0.084  0.000 -0.084
tot -0.000 -0.087 -0.012 -0.100
 
band  17 # energy    2.62736387 # occ.  1.00000000
 
ion      s      p      d    tot
  1  0.000  0.028  0.075  0.103
  2  0.000  0.492  0.001  0.493
tot  0.000  0.520  0.076  0.596
  1 -0.000  0.003  0.009  0.012
  2 -0.000  0.059  0.000  0.059
tot -0.000  0.062  0.009  0.071
  1  0.000  0.003  0.009  0.012
  2  0.000  0.059  0.000  0.059
tot  0.000  0.062  0.009  0.071
  1 -0.000  0.003  0.009  0.012
  2 -0.000  0.059  0.000  0.059
tot -0.000  0.062  0.009  0.071
 
band  18 # energy    2.63083489 # occ.  1.00000000
 
ion      s      p      d    tot
  1  0.000  0.028  0.075  0.103
  2  0.000  0.492  0.001  0.493
tot  0.000  0.520  0.076  0.596
  1  0.000 -0.003 -0.009 -0.012
  2  0.000 -0.059 -0.000 -0.059
tot  0.000 -0.062 -0.009 -0.071
  1 -0.000 -0.003 -0.009 -0.012
  2 -0.000 -0.059 -0.000 -0.059
tot -0.000 -0.062 -0.009 -0.071
  1  0.000 -0.003 -0.009 -0.012
  2  0.000 -0.059 -0.000 -0.059
tot  0.000 -0.062 -0.009 -0.071
 
band  19 # energy    3.11734028 # occ.  0.00000000
 
ion      s      p      d    tot
  1  0.313  0.000  0.000  0.313
  2  0.239  0.001  0.000  0.239
tot  0.552  0.001  0.000  0.553
  1 -0.181 -0.000 -0.000 -0.181
  2 -0.138 -0.000 -0.000 -0.138
tot -0.318 -0.000 -0.000 -0.319
  1 -0.181 -0.000 -0.000 -0.181
  2 -0.138 -0.000 -0.000 -0.138
tot -0.319 -0.000 -0.000 -0.319
  1 -0.181 -0.000 -0.000 -0.181
  2 -0.138 -0.000 -0.000 -0.138
tot -0.318 -0.000 -0.000 -0.319
 
band  20 # energy    3.11840807 # occ.  0.00000000
 
ion      s      p      d    tot
  1  0.313  0.000  0.000  0.313
  2  0.239  0.001  0.000  0.240
tot  0.551  0.001  0.000  0.552
  1  0.180  0.000  0.000  0.181
  2  0.138  0.000  0.000  0.138
tot  0.318  0.000  0.000  0.319
  1  0.181  0.000  0.000  0.181
  2  0.138  0.000  0.000  0.138
tot  0.318  0.000  0.000  0.319
  1  0.181  0.000  0.000  0.181
  2  0.138  0.000  0.000  0.138
tot  0.318  0.000  0.000  0.319
 
band  21 # energy    6.71945698 # occ.  0.00000000
 
ion      s      p      d    tot
  1  0.000  0.260  0.001  0.261
  2  0.000  0.009  0.085  0.093
tot  0.000  0.268  0.086  0.354
  1 -0.000  0.051  0.000  0.051
  2 -0.000  0.002  0.017  0.019
tot -0.000  0.053  0.017  0.070
  1 -0.000  0.051  0.000  0.051
  2 -0.000  0.002  0.017  0.019
tot -0.000  0.053  0.017  0.070
  1 -0.000  0.051  0.000  0.051
  2 -0.000  0.002  0.017  0.019
tot -0.000  0.053  0.017  0.070
 
band  22 # energy    6.72123472 # occ.  0.00000000
 
ion      s      p      d    tot
  1  0.000  0.259  0.001  0.260
  2  0.000  0.009  0.085  0.093
tot  0.000  0.268  0.086  0.354
  1  0.000 -0.052 -0.000 -0.052
  2  0.000 -0.002 -0.017 -0.019
tot  0.000 -0.054 -0.017 -0.071
  1  0.000 -0.052 -0.000 -0.052
  2  0.000 -0.002 -0.017 -0.019
tot  0.000 -0.054 -0.017 -0.071
  1  0.000 -0.052 -0.000 -0.052
  2  0.000 -0.002 -0.017 -0.019
tot  0.000 -0.054 -0.017 -0.071
 
band  23 # energy    7.04994440 # occ.  0.00000000
 
ion      s      p      d    tot
  1  0.000  0.235  0.001  0.236
  2  0.000  0.008  0.098  0.106
tot  0.000  0.243  0.099  0.342
  1  0.000  0.036  0.000  0.036
  2  0.000  0.001  0.015  0.016
tot  0.000  0.037  0.015  0.053
  1 -0.000  0.036  0.000  0.036
  2 -0.000  0.001  0.015  0.016
tot -0.000  0.037  0.015  0.053
  1 -0.000  0.036  0.000  0.036
  2 -0.000  0.001  0.015  0.016
tot -0.000  0.037  0.015  0.053
 
band  24 # energy    7.05394246 # occ.  0.00000000
 
ion      s      p      d    tot
  1  0.000  0.236  0.001  0.237
  2  0.000  0.007  0.099  0.106
tot  0.000  0.243  0.100  0.343
  1 -0.000 -0.047 -0.000 -0.047
  2 -0.000 -0.001 -0.020 -0.021
tot -0.000 -0.048 -0.020 -0.068
  1 -0.000 -0.047 -0.000 -0.047
  2 -0.000 -0.001 -0.020 -0.021
tot -0.000 -0.048 -0.020 -0.068
  1 -0.000 -0.047 -0.000 -0.047
  2 -0.000 -0.001 -0.020 -0.021
tot -0.000 -0.048 -0.020 -0.068
 
band  25 # energy    7.05609719 # occ.  0.00000000
 
ion      s      p      d    tot
  1  0.000  0.235  0.001  0.236
  2  0.000  0.008  0.098  0.106
tot  0.000  0.243  0.099  0.342
  1  0.000 -0.036 -0.000 -0.036
  2 -0.000 -0.001 -0.015 -0.016
tot  0.000 -0.038 -0.015 -0.053
  1  0.000 -0.036 -0.000 -0.036
  2  0.000 -0.001 -0.015 -0.016
tot  0.000 -0.037 -0.015 -0.053
  1  0.000 -0.036 -0.000 -0.036
  2  0.000 -0.001 -0.015 -0.016
tot  0.000 -0.038 -0.015 -0.053
 
band  26 # energy    7.05704474 # occ.  0.00000000
 
ion      s      p      d    tot
  1  0.000  0.236  0.001  0.237
  2  0.000  0.007  0.099  0.106
tot  0.000  0.243  0.100  0.343
  1  0.000  0.048  0.000  0.048
  2  0.000  0.001  0.020  0.021
tot  0.000  0.049  0.020  0.069
  1  0.000  0.048  0.000  0.048
  2  0.000  0.001  0.020  0.021
tot  0.000  0.049  0.020  0.069
  1  0.000  0.048  0.000  0.048
  2  0.000  0.001  0.020  0.021
tot  0.000  0.049  0.020  0.069
 
band  27 # energy    9.81221945 # occ.  0.00000000
 
ion      s      p      d    tot
  1  0.233  0.000  0.000  0.233
  2  0.006  0.000  0.000  0.006
tot  0.239  0.000  0.000  0.240
  1  0.134  0.000  0.000  0.135
  2  0.004  0.000  0.000  0.004
tot  0.138  0.000  0.000  0.138
  1  0.134  0.000  0.000  0.135
  2  0.004  0.000  0.000  0.004
tot  0.138  0.000  0.000  0.138
  1  0.134  0.000  0.000  0.135
  2  0.004  0.000  0.000  0.004
tot  0.138  0.000  0.000  0.138
 
band  28 # energy    9.81491234 # occ.  0.00000000
 
ion      s      p      d    tot
  1  0.233  0.000  0.000  0.233
  2  0.006  0.000  0.000  0.006
tot  0.239  0.000  0.000  0.240
  1 -0.134 -0.000 -0.000 -0.135
  2 -0.004 -0.000 -0.000 -0.004
tot -0.138 -0.000 -0.000 -0.138
  1 -0.134 -0.000 -0.000 -0.135
  2 -0.004 -0.000 -0.000 -0.004
tot -0.138 -0.000 -0.000 -0.138
  1 -0.134 -0.000 -0.000 -0.135
  2 -0.004 -0.000 -0.000 -0.004
tot -0.138 -0.000 -0.000 -0.138
 

 k-point    2 :    0.16666667 0.00000000 0.00000000     weight = 0.03703704

band   1 # energy   -8.71917158 # occ.  1.00000000
 
ion      s      p      d    tot
  1  0.053  0.002  0.019  0.074
  2  0.574  0.000  0.000  0.574
tot  0.626  0.003  0.019  0.648
  1  0.030  0.001  0.011  0.042
  2  0.330  0.000  0.000  0.331
tot  0.361  0.002  0.011  0.373
  1  0.031  0.001  0.011  0.043
  2  0.332  0.000  0.000  0.333
tot  0.363  0.002  0.011  0.375
  1  0.030  0.001  0.011  0.043
  2  0.331  0.000  0.000  0.331
tot  0.361  0.002  0.011  0.373
 
band   2 # energy   -8.71882820 # occ.  1.00000000
 
ion      s      p      d    tot
  1  0.053  0.002  0.019  0.074
  2  0.574  0.000  0.000  0.574
tot  0.626  0.003  0.019  0.648
  1 -0.030 -0.001 -0.011 -0.042
  2 -0.330 -0.000 -0.000 -0.331
tot -0.361 -0.002 -0.011 -0.373
  1 -0.031 -0.001 -0.011 -0.043
  2 -0.332 -0.000 -0.000 -0.333
tot -0.363 -0.002 -0.011 -0.375
  1 -0.030 -0.001 -0.011 -0.043
  2 -0.331 -0.000 -0.000 -0.331
tot -0.361 -0.002 -0.011 -0.373
 
band   3 # energy   -6.26039737 # occ.  1.00000000
 
ion      s      p      d    tot
  1  0.000  0.000  0.918  0.918
  2  0.000  0.014  0.001  0.014
tot  0.000  0.014  0.919  0.932
  1  0.000 -0.000 -0.003 -0.003
  2  0.000 -0.000 -0.000 -0.000
tot  0.000 -0.000 -0.003 -0.003
  1 -0.000 -0.000 -0.003 -0.003
  2 -0.000 -0.000 -0.000 -0.000
tot -0.000 -0.000 -0.003 -0.003
  1  0.000 -0.000 -0.003 -0.003
  2  0.000 -0.000 -0.000 -0.000
tot  0.000 -0.000 -0.003 -0.003
 
band   4 # energy   -6.23809327 # occ.  1.00000000
 
ion      s      p      d    tot
  1  0.000  0.000  0.923  0.923
  2  0.000  0.011  0.001  0.012
tot  0.000  0.011  0.924  0.935
  1 -0.000  0.000  0.003  0.003
  2 -0.000  0.000  0.000  0.000
tot -0.000  0.000  0.003  0.003
  1  0.000  0.000  0.003  0.003
  2  0.000  0.000  0.000  0.000
tot  0.000  0.000  0.003  0.003
  1  0.000  0.000  0.003  0.003
  2  0.000  0.000  0.000  0.000
tot  0.000  0.000  0.003  0.003
 
band   5 # energy   -6.20492304 # occ.  1.00000000
 
ion      s      p      d    tot
  1  0.002  0.000  0.912  0.914
  2  0.004  0.011  0.001  0.016
tot  0.007  0.011  0.912  0.931
  1 -0.001  0.000  0.062  0.061
  2 -0.002 -0.002  0.000 -0.004
tot -0.004 -0.002  0.062  0.057
  1 -0.001  0.000  0.044  0.043
  2 -0.003 -0.002  0.000 -0.005
tot -0.004 -0.002  0.044  0.038
  1 -0.001  0.000  0.053  0.051
  2 -0.003 -0.002  0.000 -0.005
tot -0.004 -0.002  0.053  0.047
 
band   6 # energy   -6.20488769 # occ.  1.00000000
 
ion      s      p      d    tot
  1  0.002  0.000  0.912  0.914
  2  0.004  0.011  0.001  0.016
tot  0.007  0.011  0.912  0.931
  1  0.001 -0.000 -0.064 -0.063
  2  0.002  0.002 -0.000  0.004
tot  0.004  0.002 -0.064 -0.059
  1  0.001 -0.000 -0.046 -0.045
  2  0.003  0.002 -0.000  0.005
tot  0.004  0.002 -0.046 -0.040
  1  0.001 -0.000 -0.055 -0.053
  2  0.003  0.002 -0.000  0.004
tot  0.004  0.002 -0.055 -0.049
 
band   7 # energy   -5.67032595 # occ.  1.00000000
 
ion      s      p      d    tot
  1  0.001  0.000  0.892  0.894
  2  0.001  0.024  0.001  0.026
tot  0.003  0.025  0.893  0.920
  1 -0.001  0.000  0.234  0.233
  2 -0.001  0.006  0.000  0.006
tot -0.002  0.006  0.234  0.239
  1 -0.001  0.000  0.232  0.232
  2 -0.001  0.006  0.000  0.005
tot -0.002  0.006  0.233  0.237
  1 -0.001  0.000  0.232  0.231
  2 -0.001  0.006  0.000  0.005
tot -0.002  0.006  0.232  0.237
 
band   8 # energy   -5.67016694 # occ.  1.00000000
 
ion      s      p      d    tot
  1  0.001  0.000  0.892  0.894
  2  0.001  0.024  0.001  0.026
tot  0.003  0.025  0.893  0.920
  1  0.001 -0.000 -0.233 -0.233
  2  0.001 -0.006 -0.000 -0.005
tot  0.002 -0.006 -0.234 -0.238
  1  0.001 -0.000 -0.232 -0.231
  2  0.001 -0.006 -0.000 -0.005
tot  0.002 -0.006 -0.232 -0.237
  1  0.001 -0.000 -0.232 -0.231
  2  0.001 -0.006 -0.000 -0.005
tot  0.002 -0.006 -0.232 -0.237
 
band   9 # energy   -5.49781294 # occ.  1.00000000
 
ion      s      p      d    tot
  1  0.000  0.000  0.934  0.934
  2  0.000  0.007  0.001  0.008
tot  0.000  0.007  0.934  0.941
  1 -0.000 -0.000 -0.009 -0.009
  2 -0.000 -0.000 -0.000 -0.000
tot -0.000 -0.000 -0.009 -0.009
  1 -0.000 -0.000 -0.009 -0.009
  2  0.000 -0.000 -0.000 -0.000
tot  0.000 -0.000 -0.009 -0.009
  1  0.000 -0.000 -0.009 -0.009
  2  0.000 -0.000 -0.000 -0.000
tot  0.000 -0.000 -0.009 -0.009
 
band  10 # energy   -5.49060555 # occ.  1.00000000
 
ion      s      p      d    tot
  1  0.001  0.000  0.928  0.929
  2  0.001  0.007  0.001  0.009
tot  0.002  0.007  0.929  0.938
  1  0.001  0.000 -0.268 -0.267
  2  0.001  0.003 -0.000  0.003
tot  0.001  0.003 -0.269 -0.264
  1  0.001  0.000 -0.269 -0.268
  2  0.001  0.003 -0.000  0.003
tot  0.001  0.003 -0.269 -0.265
  1  0.001  0.000 -0.268 -0.268
  2  0.001  0.003 -0.000  0.003
tot  0.001  0.003 -0.269 -0.265
 
band  11 # energy   -5.49025241 # occ.  1.00000000
 
ion      s      p      d    tot
  1  0.001  0.000  0.928  0.929
  2  0.001  0.007  0.001  0.009
tot  0.002  0.007  0.929  0.938
  1 -0.001 -0.000  0.270  0.269
  2 -0.001 -0.003  0.000 -0.003
tot -0.001 -0.003  0.270  0.266
  1 -0.001 -0.000  0.270  0.269
  2 -0.001 -0.003  0.000 -0.003
tot -0.001 -0.003  0.270  0.266
  1 -0.001 -0.000  0.270  0.269
  2 -0.001 -0.003  0.000 -0.003
tot -0.001 -0.003  0.270  0.266
 
band  12 # energy   -5.46966400 # occ.  1.00000000
 
ion      s      p      d    tot
  1  0.000  0.000  0.940  0.940
  2  0.000  0.003  0.001  0.005
tot  0.000  0.004  0.941  0.945
  1  0.000  0.000  0.009  0.009
  2  0.000  0.000  0.000  0.000
tot  0.000  0.000  0.009  0.010
  1 -0.000  0.000  0.009  0.009
  2 -0.000  0.000  0.000  0.000
tot -0.000  0.000  0.009  0.010
  1 -0.000  0.000  0.009  0.009
  2 -0.000  0.000  0.000  0.000
tot -0.000  0.000  0.009  0.010
 
band  13 # energy    0.54570412 # occ.  1.00000000
 
ion      s      p      d    tot
  1  0.105  0.026  0.062  0.193
  2  0.066  0.293  0.001  0.360
tot  0.171  0.318  0.064  0.553
  1  0.061  0.013  0.030  0.104
  2  0.038  0.145  0.001  0.184
tot  0.099  0.159  0.031  0.289
  1  0.061  0.013  0.030  0.105
  2  0.038  0.146  0.001  0.185
tot  0.099  0.159  0.031  0.289
  1  0.061  0.013  0.030  0.105
  2  0.038  0.146  0.001  0.185
tot  0.099  0.159  0.031  0.289
 
band  14 # energy    0.54614678 # occ.  1.00000000
 
ion      s      p      d    tot
  1  0.105  0.026  0.062  0.193
  2  0.066  0.293  0.001  0.360
tot  0.171  0.318  0.064  0.553
  1 -0.061 -0.013 -0.030 -0.104
  2 -0.038 -0.145 -0.001 -0.184
tot -0.099 -0.159 -0.031 -0.288
  1 -0.061 -0.013 -0.030 -0.105
  2 -0.038 -0.146 -0.001 -0.185
tot -0.099 -0.159 -0.031 -0.289
  1 -0.061 -0.013 -0.030 -0.105
  2 -0.038 -0.145 -0.001 -0.185
tot -0.099 -0.159 -0.031 -0.289
 
band  15 # energy    1.88458214 # occ.  1.00000000
 
ion      s      p      d    tot
  1  0.012  0.039  0.070  0.122
  2  0.007  0.454  0.001  0.462
tot  0.020  0.492  0.072  0.584
  1 -0.007  0.021  0.040  0.054
  2 -0.004  0.257  0.001  0.253
tot -0.011  0.278  0.040  0.307
  1 -0.007  0.021  0.040  0.054
  2 -0.004  0.257  0.001  0.253
tot -0.011  0.278  0.040  0.307
  1 -0.007  0.021  0.040  0.054
  2 -0.004  0.257  0.001  0.253
tot -0.011  0.278  0.040  0.307
 
band  16 # energy    1.88499243 # occ.  1.00000000
 
ion      s      p      d    tot
  1  0.012  0.039  0.070  0.121
  2  0.007  0.454  0.001  0.462
tot  0.019  0.492  0.072  0.584
  1  0.007 -0.021 -0.040 -0.054
  2  0.004 -0.257 -0.001 -0.253
tot  0.011 -0.278 -0.040 -0.307
  1  0.007 -0.021 -0.040 -0.054
  2  0.004 -0.257 -0.001 -0.253
tot  0.011 -0.278 -0.040 -0.307
  1  0.007 -0.021 -0.040 -0.054
  2  0.004 -0.257 -0.001 -0.253
tot  0.011 -0.278 -0.040 -0.307
 
band  17 # energy    2.38489223 # occ.  1.00000000
 
ion      s      p      d    tot
  1  0.000  0.040  0.065  0.105
  2  0.000  0.469  0.002  0.470
tot  0.000  0.509  0.066  0.575
  1  0.000  0.001  0.002  0.003
  2  0.000  0.014  0.000  0.014
tot  0.000  0.015  0.002  0.017
  1 -0.000  0.001  0.002  0.003
  2 -0.000  0.014  0.000  0.014
tot -0.000  0.015  0.002  0.017
  1  0.000  0.001  0.002  0.003
  2  0.000  0.014  0.000  0.014
tot  0.000  0.015  0.002  0.017
 
band  18 # energy    2.39847912 # occ.  1.00000000
 
ion      s      p      d    tot
  1  0.000  0.040  0.067  0.107
  2  0.000  0.468  0.002  0.470
tot  0.000  0.509  0.069  0.577
  1 -0.000 -0.001 -0.002 -0.003
  2 -0.000 -0.014 -0.000 -0.014
tot -0.000 -0.015 -0.002 -0.017
  1  0.000 -0.001 -0.002 -0.003
  2  0.000 -0.014 -0.000 -0.014
tot  0.000 -0.015 -0.002 -0.017
  1 -0.000 -0.001 -0.002 -0.003
  2 -0.000 -0.014 -0.000 -0.014
tot -0.000 -0.015 -0.002 -0.017
 
band  19 # energy    4.18427768 # occ.  0.00000000
 
ion      s      p      d    tot
  1  0.225  0.033  0.005  0.263
  2  0.133  0.131  0.010  0.273
tot  0.358  0.164  0.015  0.537
  1 -0.130 -0.018 -0.003 -0.150
  2 -0.077 -0.073 -0.005 -0.155
tot -0.207 -0.090 -0.008 -0.305
  1 -0.130 -0.018 -0.003 -0.150
  2 -0.077 -0.073 -0.005 -0.155
tot -0.207 -0.090 -0.008 -0.305
  1 -0.130 -0.018 -0.003 -0.150
  2 -0.077 -0.073 -0.005 -0.155
tot -0.207 -0.090 -0.008 -0.305
 
band  20 # energy    4.18731869 # occ.  0.00000000
 
ion      s      p      d    tot
  1  0.225  0.033  0.005  0.263
  2  0.133  0.131  0.010  0.274
tot  0.358  0.164  0.015  0.537
  1  0.130  0.018  0.003  0.150
  2  0.077  0.073  0.005  0.155
tot  0.207  0.090  0.008  0.305
  1  0.130  0.018  0.003  0.150
  2  0.077  0.073  0.005  0.155
tot  0.207  0.090  0.008  0.305
  1  0.130  0.018  0.003  0.150
  2  0.077  0.073  0.005  0.155
tot  0.207  0.090  0.008  0.305
 
band  21 # energy    7.05346297 # occ.  0.00000000
 
ion      s      p      d    tot
  1  0.034  0.152  0.012  0.198
  2  0.015  0.099  0.064  0.178
tot  0.049  0.251  0.076  0.376
  1 -0.019 -0.032 -0.005 -0.056
  2 -0.009 -0.045 -0.018 -0.072
tot -0.028 -0.077 -0.023 -0.128
  1 -0.019 -0.032 -0.005 -0.056
  2 -0.009 -0.045 -0.018 -0.072
tot -0.028 -0.077 -0.023 -0.128
  1 -0.019 -0.032 -0.005 -0.056
  2 -0.009 -0.045 -0.018 -0.072
tot -0.028 -0.077 -0.023 -0.128
 
band  22 # energy    7.05468008 # occ.  0.00000000
 
ion      s      p      d    tot
  1  0.034  0.151  0.012  0.198
  2  0.015  0.099  0.064  0.178
tot  0.049  0.251  0.076  0.376
  1  0.020  0.033  0.005  0.057
  2  0.009  0.045  0.019  0.073
tot  0.028  0.078  0.024  0.130
  1  0.020  0.033  0.005  0.057
  2  0.009  0.045  0.019  0.073
tot  0.028  0.078  0.024  0.130
  1  0.020  0.033  0.005  0.057
  2  0.009  0.045  0.019  0.073
tot  0.028  0.078  0.024  0.130
 
band  23 # energy    7.19836923 # occ.  0.00000000
 
ion      s      p      d    tot
  1  0.009  0.213  0.006  0.228
  2  0.004  0.037  0.085  0.126
tot  0.013  0.250  0.091  0.354
  1 -0.005  0.096  0.001  0.093
  2 -0.002  0.002  0.032  0.032
tot -0.007  0.098  0.034  0.125
  1 -0.005  0.096  0.001  0.093
  2 -0.002  0.002  0.032  0.032
tot -0.007  0.098  0.034  0.125
  1 -0.005  0.096  0.001  0.093
  2 -0.002  0.002  0.032  0.032
tot -0.007  0.098  0.034  0.125
 
band  24 # energy    7.19947429 # occ.  0.00000000
 
ion      s      p      d    tot
  1  0.009  0.214  0.006  0.229
  2  0.004  0.036  0.085  0.125
tot  0.012  0.250  0.092  0.354
  1  0.005 -0.097 -0.001 -0.094
  2  0.002 -0.002 -0.033 -0.033
tot  0.007 -0.100 -0.034 -0.127
  1  0.005 -0.097 -0.001 -0.094
  2  0.002 -0.002 -0.033 -0.033
tot  0.007 -0.100 -0.034 -0.127
  1  0.005 -0.097 -0.001 -0.094
  2  0.002 -0.002 -0.033 -0.033
tot  0.007 -0.100 -0.034 -0.127
 
band  25 # energy    7.38744470 # occ.  0.00000000
 
ion      s      p      d    tot
  1  0.000  0.222  0.007  0.228
  2  0.000  0.030  0.099  0.129
tot  0.000  0.252  0.106  0.358
  1 -0.000  0.014  0.000  0.014
  2  0.000  0.002  0.006  0.008
tot  0.000  0.016  0.007  0.022
  1  0.000  0.014  0.000  0.014
  2  0.000  0.002  0.006  0.008
tot  0.000  0.016  0.007  0.022
  1  0.000  0.014  0.000  0.014
  2 -0.000  0.002  0.006  0.008
tot  0.000  0.016  0.007  0.022
 
band  26 # energy    7.40458901 # occ.  0.00000000
 
ion      s      p      d    tot
  1  0.000  0.222  0.007  0.229
  2  0.000  0.030  0.096  0.126
tot  0.000  0.252  0.103  0.355
  1 -0.000 -0.014 -0.000 -0.014
  2 -0.000 -0.002 -0.006 -0.008
tot -0.000 -0.016 -0.007 -0.022
  1  0.000 -0.014 -0.000 -0.014
  2 -0.000 -0.002 -0.006 -0.008
tot -0.000 -0.016 -0.007 -0.022
  1 -0.000 -0.014 -0.000 -0.014
  2  0.000 -0.002 -0.006 -0.008
tot -0.000 -0.016 -0.007 -0.022
 
band  27 # energy   10.80881557 # occ.  0.00000000
 
ion      s      p      d    tot
  1  0.002  0.007  0.075  0.084
  2  0.000  0.001  0.152  0.153
tot  0.002  0.008  0.227  0.237
  1  0.001  0.004  0.044  0.049
  2  0.000  0.001  0.087  0.087
tot  0.001  0.004  0.130  0.136
  1  0.000  0.004  0.047  0.052
  2  0.000  0.001  0.096  0.097
tot  0.000  0.005  0.143  0.149
  1 -0.001  0.002  0.039  0.039
  2 -0.000  0.000  0.077  0.077
tot -0.001  0.002  0.116  0.117
 
band  28 # energy   10.83323151 # occ.  0.00000000
 
ion      s      p      d    tot
  1  0.095  0.050  0.019  0.164
  2  0.003  0.006  0.042  0.051
tot  0.098  0.056  0.060  0.215
  1  0.051  0.027  0.009  0.087
  2  0.002  0.003  0.021  0.026
tot  0.053  0.030  0.029  0.113
  1  0.059  0.030 -0.004  0.085
  2  0.002  0.004 -0.008 -0.002
tot  0.061  0.034 -0.012  0.083
  1  0.055  0.027  0.013  0.095
  2  0.002  0.004  0.028  0.033
tot  0.056  0.031  0.041  0.128
 

 k-point    3 :    0.33333333 0.00000000 0.00000000     weight = 0.03703704

band   1 # energy   -8.52408636 # occ.  1.00000000
 
ion      s      p      d    tot
  1  0.030  0.007  0.072  0.109
  2  0.575  0.000  0.000  0.576
tot  0.605  0.008  0.072  0.685
  1  0.017  0.004  0.040  0.062
  2  0.332  0.000 -0.000  0.332
tot  0.349  0.004  0.040  0.394
  1  0.017  0.004  0.041  0.062
  2  0.333  0.000 -0.000  0.333
tot  0.350  0.004  0.041  0.396
  1  0.017  0.004  0.040  0.062
  2  0.332  0.000 -0.000  0.332
tot  0.349  0.004  0.040  0.394
 
band   2 # energy   -8.52369294 # occ.  1.00000000
 
ion      s      p      d    tot
  1  0.030  0.007  0.072  0.109
  2  0.575  0.000  0.000  0.576
tot  0.605  0.008  0.072  0.685
  1 -0.017 -0.004 -0.040 -0.062
  2 -0.332 -0.000  0.000 -0.332
tot -0.349 -0.004 -0.040 -0.394
  1 -0.017 -0.004 -0.041 -0.062
  2 -0.333 -0.000  0.000 -0.333
tot -0.351 -0.004 -0.041 -0.396
  1 -0.017 -0.004 -0.040 -0.062
  2 -0.332 -0.000  0.000 -0.332
tot -0.349 -0.004 -0.040 -0.394
 
band   3 # energy   -6.25135698 # occ.  1.00000000
 
ion      s      p      d    tot
  1  0.000  0.000  0.920  0.920
  2  0.000  0.013  0.001  0.013
tot  0.000  0.013  0.920  0.933
  1  0.000 -0.000 -0.004 -0.004
  2  0.000 -0.000 -0.000 -0.000
tot  0.000 -0.000 -0.004 -0.004
  1 -0.000 -0.000 -0.004 -0.004
  2 -0.000 -0.000 -0.000 -0.000
tot -0.000 -0.000 -0.004 -0.004
  1  0.000 -0.000 -0.004 -0.004
  2  0.000 -0.000 -0.000 -0.000
tot  0.000 -0.000 -0.004 -0.004
 
band   4 # energy   -6.22910611 # occ.  1.00000000
 
ion      s      p      d    tot
  1  0.000  0.000  0.925  0.925
  2  0.000  0.010  0.001  0.011
tot  0.000  0.010  0.925  0.936
  1 -0.000  0.000  0.003  0.003
  2 -0.000  0.000  0.000  0.000
tot -0.000  0.000  0.003  0.003
  1  0.000  0.000  0.003  0.003
  2  0.000  0.000  0.000  0.000
tot  0.000  0.000  0.003  0.003
  1  0.000  0.000  0.003  0.003
  2  0.000  0.000  0.000  0.000
tot  0.000  0.000  0.003  0.003
 
band   5 # energy   -6.06940928 # occ.  1.00000000
 
ion      s      p      d    tot
  1  0.003  0.000  0.907  0.911
  2  0.017  0.006  0.001  0.023
tot  0.020  0.006  0.908  0.934
  1  0.002  0.000 -0.237 -0.235
  2  0.010 -0.000 -0.000  0.009
tot  0.011 -0.000 -0.237 -0.226
  1  0.002  0.000 -0.238 -0.236
  2  0.010 -0.000 -0.000  0.009
tot  0.011 -0.000 -0.238 -0.227
  1  0.002  0.000 -0.237 -0.235
  2  0.010 -0.000 -0.000  0.009
tot  0.011 -0.000 -0.238 -0.226
 
band   6 # energy   -6.06918716 # occ.  1.00000000
 
ion      s      p      d    tot
  1  0.003  0.000  0.907  0.911
  2  0.017  0.006  0.001  0.023
tot  0.020  0.006  0.908  0.934
  1 -0.002 -0.000  0.235  0.233
  2 -0.010  0.000  0.000 -0.009
tot -0.012  0.000  0.236  0.224
  1 -0.002 -0.000  0.236  0.234
  2 -0.010  0.000  0.000 -0.009
tot -0.011  0.000  0.237  0.225
  1 -0.002 -0.000  0.236  0.234
  2 -0.010  0.000  0.000 -0.009
tot -0.011  0.000  0.236  0.225
 
band   7 # energy   -5.61407205 # occ.  1.00000000
 
ion      s      p      d    tot
  1  0.001  0.000  0.905  0.906
  2  0.002  0.018  0.001  0.021
tot  0.003  0.018  0.906  0.927
  1  0.000 -0.000 -0.469 -0.469
  2  0.001 -0.009 -0.000 -0.008
tot  0.002 -0.009 -0.469 -0.477
  1  0.000 -0.000 -0.469 -0.469
  2  0.001 -0.009 -0.000 -0.008
tot  0.002 -0.009 -0.469 -0.477
  1  0.000 -0.000 -0.469 -0.469
  2  0.001 -0.009 -0.000 -0.008
tot  0.002 -0.009 -0.469 -0.477
 