 running on   24 total cores
 distrk:  each k-point on   24 cores,    1 groups
 distr:  one band on   24 cores,    1 groups
 using from now: INCAR     
 vasp.5.4.1 24Jun15 (build Nov 25 2015 16:39:35) complex                        
  
 POSCAR found type information on POSCAR  Cd Te
 POSCAR found :  2 types and       2 ions
 scaLAPACK will be used

 ----------------------------------------------------------------------------- 
|                                                                             |
|           W    W    AA    RRRRR   N    N  II  N    N   GGGG   !!!           |
|           W    W   A  A   R    R  NN   N  II  NN   N  G    G  !!!           |
|           W    W  A    A  R    R  N N  N  II  N N  N  G       !!!           |
|           W WW W  AAAAAA  RRRRR   N  N N  II  N  N N  G  GGG   !            |
|           WW  WW  A    A  R   R   N   NN  II  N   NN  G    G                |
|           W    W  A    A  R    R  N    N  II  N    N   GGGG   !!!           |
|                                                                             |
|      For optimal performance we recommend to set                            |
|        NCORE= 4 - approx SQRT( number of cores)                             |
|      NCORE specifies how many cores store one orbital (NPAR=cpu/NCORE).     |
|      This setting can  greatly improve the performance of VASP for DFT.     |
|      The default, NPAR=number of cores might be grossly inefficient         |
|      on modern multi-core architectures or massively parallel machines.     |
|      Do your own testing !!!!                                               |
|      Unfortunately you need to use the default for GW and RPA calculations. |
|      (for HF NCORE is supported but not extensively tested yet)             |
|                                                                             |
 ----------------------------------------------------------------------------- 

 LDA part: xc-table for Pade appr. of Perdew
 POSCAR, INCAR and KPOINTS ok, starting setup
 FFT: planning ...
 WAVECAR not read
 WARNING: random wavefunctions but no delay for mixing, default for NELMDL
 entering main loop
       N       E                     dE             d eps       ncg     rms          rms(c)
DAV:   1     0.109843125276E+03    0.10984E+03   -0.80376E+03 14232   0.109E+03
DAV:   2     0.108692633067E+01   -0.10876E+03   -0.10502E+03 15588   0.272E+02
DAV:   3    -0.415391980319E+01   -0.52408E+01   -0.52055E+01 17004   0.603E+01
DAV:   4    -0.422304720677E+01   -0.69127E-01   -0.69089E-01 17972   0.599E+00
DAV:   5    -0.422373085833E+01   -0.68365E-03   -0.68364E-03 15940   0.625E-01    0.113E+01
DAV:   6    -0.485735859096E+01   -0.63363E+00   -0.54766E-01 14660   0.120E+01    0.572E+00
DAV:   7    -0.488948813517E+01   -0.32130E-01   -0.23336E-01 14340   0.516E+00    0.346E+00
DAV:   8    -0.488858287516E+01    0.90526E-03   -0.21702E-02 14756   0.128E+00    0.176E+00
DAV:   9    -0.488940988951E+01   -0.82701E-03   -0.41002E-03 14956   0.988E-01    0.372E-01
DAV:  10    -0.489002922954E+01   -0.61934E-03   -0.97592E-04 14516   0.374E-01    0.194E-01
DAV:  11    -0.489020552954E+01   -0.17630E-03   -0.17807E-04 15232   0.963E-02    0.938E-02
DAV:  12    -0.489031426957E+01   -0.10874E-03   -0.74065E-05 15912   0.629E-02    0.300E-02
DAV:  13    -0.489033933596E+01   -0.25066E-04   -0.12944E-05 15444   0.256E-02    0.162E-02
DAV:  14    -0.489035157215E+01   -0.12236E-04   -0.10018E-05 14560   0.201E-02    0.808E-03
DAV:  15    -0.489035455653E+01   -0.29844E-05   -0.29821E-06 14632   0.112E-02    0.381E-03
DAV:  16    -0.489035491894E+01   -0.36242E-06   -0.44817E-07 11188   0.534E-03
   1 F= -.48903549E+01 E0= -.48903549E+01  d E =-.489035E+01  mag=     0.0003     0.0003     0.0003
 curvature:   0.00 expect dE= 0.000E+00 dE for cont linesearch  0.000E+00
 trial: gam= 0.00000 g(F)=  0.954E-01 g(S)=  0.342E+00 ort = 0.000E+00 (trialstep = 0.100E+01)
 search vector abs. value=  0.438E+00
 writing wavefunctions
Application 23541625 resources: utime ~4564s, stime ~48s, Rss ~62892, inblocks ~144991, outblocks ~707263
