       N       E                     dE             d eps       ncg     rms          ort
DAV:   1     0.490896750922E+04    0.49090E+04   -0.16321E+05 30050   0.739E+03
DAV:   2     0.136459172769E+04   -0.35444E+04   -0.34795E+04 30050   0.224E+03
DAV:   3     0.395347862734E+03   -0.96924E+03   -0.94686E+03 30050   0.526E+02
DAV:   4     0.211093322926E+03   -0.18425E+03   -0.17605E+03 30050   0.215E+02
DAV:   5     0.189131160972E+03   -0.21962E+02   -0.21073E+02 30050   0.696E+01
SDA:   6     0.182282287342E+03   -0.68489E+01   -0.21073E+02 30050   0.484E+04 0.000E+00
CGA:   7     0.513152436771E+01   -0.17715E+03   -0.46920E+03 30050   0.377E+03-0.875E+03
CGA:   8    -0.306463231636E+02   -0.35778E+02   -0.32944E+02 30050   0.246E+02 0.174E+02
CGA:   9    -0.343597844888E+02   -0.37135E+01   -0.36780E+01 30050   0.147E+02-0.178E+00
CGA:  10    -0.371378744867E+02   -0.27781E+01   -0.27746E+01 30050   0.451E+01 0.709E+00
CGA:  11    -0.378495302103E+02   -0.71166E+00   -0.71838E+00 30050   0.160E+01 0.396E-01
CGA:  12    -0.382953765070E+02   -0.44585E+00   -0.44572E+00 30050   0.954E+00-0.166E-02
CGA:  13    -0.384760776343E+02   -0.18070E+00   -0.18070E+00 30050   0.272E+00-0.388E-02
CGA:  14    -0.385401435898E+02   -0.64066E-01   -0.64051E-01 30050   0.135E+00 0.134E-03
CGA:  15    -0.385707237500E+02   -0.30580E-01   -0.30593E-01 30050   0.405E-01-0.331E-03
CGA:  16    -0.385804561401E+02   -0.97324E-02   -0.97344E-02 30050   0.147E-01-0.297E-04
CGA:  17    -0.385842831902E+02   -0.38271E-02   -0.38292E-02 30050   0.500E-02-0.293E-04
CGA:  18    -0.385856640803E+02   -0.13809E-02   -0.13821E-02 30050   0.188E-02-0.147E-04
CGA:  19    -0.385861910087E+02   -0.52693E-03   -0.52662E-03 30050   0.640E-03 0.464E-05
CGA:  20    -0.385863579709E+02   -0.16696E-03   -0.16665E-03 30050   0.221E-03 0.622E-05
CGA:  21    -0.385864168976E+02   -0.58927E-04   -0.58834E-04 30050   0.767E-04 0.177E-05
CGA:  22    -0.385864389292E+02   -0.22032E-04   -0.21914E-04 30050   0.286E-04 0.168E-05
CGA:  23    -0.385864487436E+02   -0.98144E-05   -0.10034E-04 30050   0.129E-04-0.172E-05
CGA:  24    -0.385864523800E+02   -0.36364E-05   -0.35913E-05 30050   0.551E-05 0.620E-06
CGA:  25    -0.385864540876E+02   -0.17076E-05   -0.16936E-05 30050   0.243E-05 0.213E-06
CGA:  26    -0.385864549705E+02   -0.88288E-06   -0.90125E-06 30050   0.146E-05-0.143E-06
