 running on 3648 total cores
 distrk:  each k-point on   24 cores,  152 groups
 distr:  one band on   24 cores,    1 groups
 using from now: INCAR     
 vasp.5.4.1 24Jun15 (build Nov 25 2015 16:01:35) complex                        
  
 POSCAR found type information on POSCAR  Cu Zn Sn S 
 POSCAR found :  4 types and       8 ions
 scaLAPACK will be used

 ----------------------------------------------------------------------------- 
|                                                                             |
|           W    W    AA    RRRRR   N    N  II  N    N   GGGG   !!!           |
|           W    W   A  A   R    R  NN   N  II  NN   N  G    G  !!!           |
|           W    W  A    A  R    R  N N  N  II  N N  N  G       !!!           |
|           W WW W  AAAAAA  RRRRR   N  N N  II  N  N N  G  GGG   !            |
|           WW  WW  A    A  R   R   N   NN  II  N   NN  G    G                |
|           W    W  A    A  R    R  N    N  II  N    N   GGGG   !!!           |
|                                                                             |
|      For optimal performance we recommend to set                            |
|        NCORE= 4 - approx SQRT( number of cores)                             |
|      NCORE specifies how many cores store one orbital (NPAR=cpu/NCORE).     |
|      This setting can  greatly improve the performance of VASP for DFT.     |
|      The default, NPAR=number of cores might be grossly inefficient         |
|      on modern multi-core architectures or massively parallel machines.     |
|      Do your own testing !!!!                                               |
|      Unfortunately you need to use the default for GW and RPA calculations. |
|      (for HF NCORE is supported but not extensively tested yet)             |
|                                                                             |
 ----------------------------------------------------------------------------- 


 ----------------------------------------------------------------------------- 
|                                                                             |
|           W    W    AA    RRRRR   N    N  II  N    N   GGGG   !!!           |
|           W    W   A  A   R    R  NN   N  II  NN   N  G    G  !!!           |
|           W    W  A    A  R    R  N N  N  II  N N  N  G       !!!           |
|           W WW W  AAAAAA  RRRRR   N  N N  II  N  N N  G  GGG   !            |
|           WW  WW  A    A  R   R   N   NN  II  N   NN  G    G                |
|           W    W  A    A  R    R  N    N  II  N    N   GGGG   !!!           |
|                                                                             |
|      You have enabled k-point parallelism (KPAR>1).                         |
|      This developmental code was originally  written by Paul Kent at ORNL,  |
|      and carefully double checked in Vienna.                                |
|      GW as well as linear response parallelism added by Martijn Marsman     |
|      and Georg Kresse.                                                      |
|      Carefully verify results versus KPAR=1.                                |
|      Report problems to Paul Kent and Vienna.                               |
|                                                                             |
 ----------------------------------------------------------------------------- 


 ----------------------------------------------------------------------------- 
|                                                                             |
|           W    W    AA    RRRRR   N    N  II  N    N   GGGG   !!!           |
|           W    W   A  A   R    R  NN   N  II  NN   N  G    G  !!!           |
|           W    W  A    A  R    R  N N  N  II  N N  N  G       !!!           |
|           W WW W  AAAAAA  RRRRR   N  N N  II  N  N N  G  GGG   !            |
|           WW  WW  A    A  R   R   N   NN  II  N   NN  G    G                |
|           W    W  A    A  R    R  N    N  II  N    N   GGGG   !!!           |
|                                                                             |
|      You have selected ISYM=2 for HF type calculation. This will symmetrize |
|      the charge density but not the exchange potential.                     |
|      I suggest to use ISYM=3 instead. This uses symmetry to obtain          |
|      the orbitals at all k-points in the Brillouine zone, but does not      |
|      apply symmetry to the Hartree potential directly.                      |
|      The resultant charge might have lower symmetry than the crystal,       |
|      but at least, Hartree and exchange are fully compatible.               |
|                                                                             |
 ----------------------------------------------------------------------------- 

 LDA part: xc-table for Pade appr. of Perdew

 ----------------------------------------------------------------------------- 
|                                                                             |
|           W    W    AA    RRRRR   N    N  II  N    N   GGGG   !!!           |
|           W    W   A  A   R    R  NN   N  II  NN   N  G    G  !!!           |
|           W    W  A    A  R    R  N N  N  II  N N  N  G       !!!           |
|           W WW W  AAAAAA  RRRRR   N  N N  II  N  N N  G  GGG   !            |
|           WW  WW  A    A  R   R   N   NN  II  N   NN  G    G                |
|           W    W  A    A  R    R  N    N  II  N    N   GGGG   !!!           |
|                                                                             |
|      Your generating k-point grid is not commensurate to the symmetry       |
|      of the lattice.  This can cause   slow convergence with respect        |
|      to k-points for HF type calculations                                   |
|      suggested SOLUTIONS:                                                   |
|       ) if not already the case, use automatic k-point generation           |
|       ) shift your grid to Gamma (G) (e.g. required for hex or fcc lattice) |
|                                                                             |
 ----------------------------------------------------------------------------- 

 POSCAR, INCAR and KPOINTS ok, starting setup
 WARNING: small aliasing (wrap around) errors must be expected
 FFT: planning ...
 WAVECAR not read
 WARNING: random wavefunctions but no delay for mixing, default for NELMDL
 entering main loop
       N       E                     dE             d eps       ncg     rms          ort
DAV:   1     0.490896750922E+04    0.49090E+04   -0.16321E+05 30050   0.739E+03
DAV:   2     0.136459172769E+04   -0.35444E+04   -0.34795E+04 30050   0.224E+03
DAV:   3     0.395347862734E+03   -0.96924E+03   -0.94686E+03 30050   0.526E+02
DAV:   4     0.211093322926E+03   -0.18425E+03   -0.17605E+03 30050   0.215E+02
DAV:   5     0.189131160972E+03   -0.21962E+02   -0.21073E+02 30050   0.696E+01
 gam= 0.000 g(H,U,f)=  0.214E+04 0.266E+04 0.417E+02 ort(H,U,f) = 0.000E+00 0.000E+00 0.000E+00
SDA:   6     0.182282287342E+03   -0.68489E+01   -0.21073E+02 30050   0.484E+04 0.000E+00
 gam= 0.000 trial= 0.400  step= 0.194 mean= 0.400
 gam= 0.078 g(H,U,f)=  0.347E+03 0.297E+02 0.190E-22 ort(H,U,f) =-0.781E+03-0.939E+02-0.123E-21
CGA:   7     0.513152436771E+01   -0.17715E+03   -0.46920E+03 30050   0.377E+03-0.875E+03
 gam= 0.078 trial= 0.390  step= 0.213 mean= 0.390
 gam= 0.065 g(H,U,f)=  0.230E+02 0.154E+01 0.391E-02 ort(H,U,f) = 0.213E+02-0.388E+01-0.618E-02
CGA:   8    -0.306463231636E+02   -0.35778E+02   -0.32944E+02 30050   0.246E+02 0.174E+02
 gam= 0.065 trial= 0.381  step= 0.286 mean= 0.381
 gam= 0.597 g(H,U,f)=  0.971E+01 0.492E+01 0.573E-01 ort(H,U,f) =-0.205E+01 0.185E+01 0.232E-01
CGA:   9    -0.343597844888E+02   -0.37135E+01   -0.36780E+01 30050   0.147E+02-0.178E+00
 gam= 0.597 trial= 0.376  step= 0.381 mean= 0.376
 gam= 0.307 g(H,U,f)=  0.374E+01 0.777E+00 0.244E-67 ort(H,U,f) =-0.117E+01 0.187E+01 0.653E-67
CGA:  10    -0.371378744867E+02   -0.27781E+01   -0.27746E+01 30050   0.451E+01 0.709E+00
 gam= 0.307 trial= 0.376  step= 0.304 mean= 0.376
 gam= 0.355 g(H,U,f)=  0.142E+01 0.180E+00 0.130E-58 ort(H,U,f) =-0.461E+00 0.500E+00 0.446E-58
CGA:  11    -0.378495302103E+02   -0.71166E+00   -0.71838E+00 30050   0.160E+01 0.396E-01
 gam= 0.355 trial= 0.373  step= 0.552 mean= 0.373
 gam= 0.596 g(H,U,f)=  0.900E+00 0.539E-01 0.895E-58 ort(H,U,f) =-0.179E+00 0.177E+00 0.319E-57
CGA:  12    -0.382953765070E+02   -0.44585E+00   -0.44572E+00 30050   0.954E+00-0.166E-02
 gam= 0.596 trial= 0.382  step= 0.379 mean= 0.382
 gam= 0.285 g(H,U,f)=  0.251E+00 0.216E-01-0.517E-48 ort(H,U,f) =-0.982E-01 0.943E-01-0.269E-47
CGA:  13    -0.384760776343E+02   -0.18070E+00   -0.18070E+00 30050   0.272E+00-0.388E-02
 gam= 0.285 trial= 0.382  step= 0.473 mean= 0.382
 gam= 0.494 g(H,U,f)=  0.126E+00 0.835E-02 0.465E-55 ort(H,U,f) =-0.167E-01 0.168E-01 0.499E-54
CGA:  14    -0.385401435898E+02   -0.64066E-01   -0.64051E-01 30050   0.135E+00 0.134E-03
 gam= 0.494 trial= 0.386  step= 0.454 mean= 0.386
 gam= 0.301 g(H,U,f)=  0.381E-01 0.239E-02 0.433E-53 ort(H,U,f) =-0.946E-02 0.913E-02 0.967E-52
CGA:  15    -0.385707237500E+02   -0.30580E-01   -0.30593E-01 30050   0.405E-01-0.331E-03
 gam= 0.301 trial= 0.390  step= 0.482 mean= 0.390
 gam= 0.364 g(H,U,f)=  0.134E-01 0.134E-02 0.182E-17 ort(H,U,f) =-0.265E-02 0.262E-02-0.992E-17
CGA:  16    -0.385804561401E+02   -0.97324E-02   -0.97344E-02 30050   0.147E-01-0.297E-04
 gam= 0.364 trial= 0.394  step= 0.520 mean= 0.394
 gam= 0.339 g(H,U,f)=  0.470E-02 0.303E-03 0.192-171 ort(H,U,f) =-0.101E-02 0.981E-03-0.257-171
CGA:  17    -0.385842831902E+02   -0.38271E-02   -0.38292E-02 30050   0.500E-02-0.293E-04
 gam= 0.339 trial= 0.400  step= 0.554 mean= 0.400
 gam= 0.377 g(H,U,f)=  0.174E-02 0.148E-03 0.763E-43 ort(H,U,f) =-0.349E-03 0.335E-03 0.413E-43
CGA:  18    -0.385856640803E+02   -0.13809E-02   -0.13821E-02 30050   0.188E-02-0.147E-04
 gam= 0.377 trial= 0.408  step= 0.561 mean= 0.408
 gam= 0.340 g(H,U,f)=  0.609E-03 0.313E-04 0.191E-17 ort(H,U,f) =-0.103E-03 0.108E-03 0.369E-17
CGA:  19    -0.385861910087E+02   -0.52693E-03   -0.52662E-03 30050   0.640E-03 0.464E-05
 gam= 0.340 trial= 0.416  step= 0.519 mean= 0.416
 gam= 0.345 g(H,U,f)=  0.209E-03 0.122E-04 0.317-134 ort(H,U,f) =-0.296E-04 0.358E-04 0.728-134
CGA:  20    -0.385863579709E+02   -0.16696E-03   -0.16665E-03 30050   0.221E-03 0.622E-05
 gam= 0.345 trial= 0.421  step= 0.527 mean= 0.421
 gam= 0.347 g(H,U,f)=  0.721E-04 0.462E-05 0.121E-90 ort(H,U,f) =-0.742E-05 0.918E-05 0.465E-90
CGA:  21    -0.385864168976E+02   -0.58927E-04   -0.58834E-04 30050   0.767E-04 0.177E-05
 gam= 0.347 trial= 0.426  step= 0.567 mean= 0.426
 gam= 0.372 g(H,U,f)=  0.270E-04 0.160E-05 0.445-278 ort(H,U,f) =-0.186E-05 0.354E-05 0.197-277
CGA:  22    -0.385864389292E+02   -0.22032E-04   -0.21914E-04 30050   0.286E-04 0.168E-05
 gam= 0.372 trial= 0.433  step= 0.687 mean= 0.433
 gam= 0.451 g(H,U,f)=  0.120E-04 0.904E-06 0.815-182 ort(H,U,f) =-0.258E-05 0.862E-06 0.446-180
CGA:  23    -0.385864487436E+02   -0.98144E-05   -0.10034E-04 30050   0.129E-04-0.172E-05
 gam= 0.451 trial= 0.446  step= 0.593 mean= 0.446
 gam= 0.428 g(H,U,f)=  0.532E-05 0.193E-06 0.116-152 ort(H,U,f) = 0.295E-06 0.325E-06-0.513-151
CGA:  24    -0.385864523800E+02   -0.36364E-05   -0.35913E-05 30050   0.551E-05 0.620E-06
 gam= 0.428 trial= 0.453  step= 0.586 mean= 0.453
 gam= 0.440 g(H,U,f)=  0.226E-05 0.169E-06 0.209-126 ort(H,U,f) = 0.755E-07 0.138E-06-0.364-126
CGA:  25    -0.385864540876E+02   -0.17076E-05   -0.16936E-05 30050   0.243E-05 0.213E-06
 gam= 0.440 trial= 0.460  step= 0.715 mean= 0.460
 gam= 0.603 g(H,U,f)=  0.143E-05 0.318E-07 0.114-102 ort(H,U,f) =-0.145E-06 0.184E-08 0.560-103
CGA:  26    -0.385864549705E+02   -0.88288E-06   -0.90125E-06 30050   0.146E-05-0.143E-06
 gam= 0.603 trial= 0.473  step= 0.664 mean= 0.473
Application 22180036 exit codes: 1
Application 22180036 resources: utime ~2905458s, stime ~6246s, Rss ~1059216, inblocks ~14059553, outblocks ~31005406
