 running on 1344 total cores
 distrk:  each k-point on  192 cores,    7 groups
 distr:  one band on   24 cores,    8 groups
 using from now: INCAR     
 vasp.5.4.1 24Jun15 (build Nov 25 2015 16:39:35) complex                        
  
 POSCAR found type information on POSCAR  C  N  H  Pb I 
 POSCAR found :  5 types and      96 ions
 scaLAPACK will be used

 ----------------------------------------------------------------------------- 
|                                                                             |
|           W    W    AA    RRRRR   N    N  II  N    N   GGGG   !!!           |
|           W    W   A  A   R    R  NN   N  II  NN   N  G    G  !!!           |
|           W    W  A    A  R    R  N N  N  II  N N  N  G       !!!           |
|           W WW W  AAAAAA  RRRRR   N  N N  II  N  N N  G  GGG   !            |
|           WW  WW  A    A  R   R   N   NN  II  N   NN  G    G                |
|           W    W  A    A  R    R  N    N  II  N    N   GGGG   !!!           |
|                                                                             |
|      You have enabled k-point parallelism (KPAR>1).                         |
|      This developmental code was originally  written by Paul Kent at ORNL,  |
|      and carefully double checked in Vienna.                                |
|      GW as well as linear response parallelism added by Martijn Marsman     |
|      and Georg Kresse.                                                      |
|      Carefully verify results versus KPAR=1.                                |
|      Report problems to Paul Kent and Vienna.                               |
|                                                                             |
 ----------------------------------------------------------------------------- 


 ----------------------------------------------------------------------------- 
|                                                                             |
|  ADVICE TO THIS USER RUNNING 'VASP/VAMP'   (HEAR YOUR MASTER'S VOICE ...):  |
|                                                                             |
|      You have a (more or less) 'large supercell' and for larger cells       |
|      it might be more efficient to use real space projection opertators     |
|      So try LREAL= Auto  in the INCAR   file.                               |
|      Mind: At the moment your POTCAR file does not contain real space       |
|       projectors, and has to be modified,  BUT if you                       |
|      want to do an extremely  accurate calculation you might also keep the  |
|      reciprocal projection scheme          (i.e. LREAL=.FALSE.)             |
|                                                                             |
 ----------------------------------------------------------------------------- 

 LDA part: xc-table for Pade appr. of Perdew
 POSCAR, INCAR and KPOINTS ok, starting setup
 WARNING: small aliasing (wrap around) errors must be expected
 FFT: planning ...
 WAVECAR not read
 entering main loop
       N       E                     dE             d eps       ncg     rms          ort
DAV:   1     0.479147233199E+04    0.47915E+04   -0.21203E+05 16200   0.155E+03
DAV:   2     0.155974470368E+04   -0.32317E+04   -0.29904E+04 16200   0.317E+02
DAV:   3     0.971472632712E+03   -0.58827E+03   -0.57022E+03 16200   0.152E+02
DAV:   4     0.929288898582E+03   -0.42184E+02   -0.41677E+02 16200   0.416E+01
DAV:   5     0.927577923415E+03   -0.17110E+01   -0.17055E+01 16200   0.881E+00
 gam= 0.000 g(H,U,f)=  0.366E+03 0.753E+02 0.758E-03 ort(H,U,f) = 0.000E+00 0.000E+00 0.000E+00
SDA:   6    -0.185835174976E+03   -0.11134E+04   -0.17055E+01 16200   0.441E+03 0.000E+00
 gam= 0.000 trial= 0.400  step=-1.625 mean= 0.400
 BOPT < 0, no correction made
 gam= 0.642 g(H,U,f)=  0.255E+03 0.282E+02 0.699E-05 ort(H,U,f) = 0.205E+03-0.705E+01-0.160E-04
CGA:   7    -0.383916302850E+03   -0.19808E+03    0.35817E+03 16200   0.283E+03 0.198E+03
 gam= 0.642 trial= 0.400  step= 0.261 mean= 0.400
 gam= 0.432 g(H,U,f)=  0.116E+03 0.608E+01 0.000E+00 ort(H,U,f) = 0.750E-01 0.651E+01 0.000E+00
CGA:   8    -0.437167025573E+03   -0.53251E+02   -0.53580E+02 16200   0.122E+03 0.659E+01
 gam= 0.432 trial= 0.393  step= 0.334 mean= 0.393
 gam= 0.669 g(H,U,f)=  0.794E+02 0.246E+01 0.000E+00 ort(H,U,f) = 0.936E+00 0.125E+01 0.000E+00
CGA:   9    -0.457924774606E+03   -0.20758E+02   -0.20911E+02 16200   0.819E+02 0.219E+01
 gam= 0.669 trial= 0.390  step= 0.300 mean= 0.390
 gam= 0.510 g(H,U,f)=  0.403E+02 0.145E+01 0.000E+00 ort(H,U,f) = 0.332E+00 0.101E+01 0.000E+00
CGA:  10    -0.470261949864E+03   -0.12337E+02   -0.12511E+02 16200   0.417E+02 0.134E+01
 gam= 0.510 trial= 0.386  step= 0.327 mean= 0.386
 gam= 0.546 g(H,U,f)=  0.222E+02 0.588E+00 0.000E+00 ort(H,U,f) =-0.449E+00 0.987E+00 0.000E+00
CGA:  11    -0.477147644599E+03   -0.68857E+01   -0.69304E+01 16200   0.228E+02 0.538E+00
 gam= 0.546 trial= 0.383  step= 0.340 mean= 0.383
 gam= 0.548 g(H,U,f)=  0.122E+02 0.222E+00 0.224E-17 ort(H,U,f) =-0.499E+00 0.604E+00 0.199E-16
CGA:  12    -0.481064620561E+03   -0.39170E+01   -0.39234E+01 16200   0.125E+02 0.105E+00
Application 22297766 exit codes: 1
Application 22297766 resources: utime ~3018989s, stime ~4360s, Rss ~1481040, inblocks ~5607845, outblocks ~10953202
