  96  96   0   0
  0.2080188E+02  0.1257760E-08  0.1245754E-08  0.1274818E-08  0.5000000E-15
  1.000000000000000E-004
  CAR 
 MAPbI3-Cubic                            
     10.62623065    -19.69557938  301      1.58022399      1.00000000
    -19.696  0.0000E+00  0.0000E+00
    -19.595  0.0000E+00  0.0000E+00
    -19.493  0.0000E+00  0.0000E+00
    -19.392  0.0000E+00  0.0000E+00
    -19.291  0.0000E+00  0.0000E+00
    -19.190  0.0000E+00  0.0000E+00
    -19.089  0.0000E+00  0.0000E+00
    -18.988  0.0000E+00  0.0000E+00
    -18.887  0.0000E+00  0.0000E+00
    -18.786  0.0000E+00  0.0000E+00
    -18.685  0.0000E+00  0.0000E+00
    -18.584  0.0000E+00  0.0000E+00
    -18.483  0.0000E+00  0.0000E+00
    -18.382  0.0000E+00  0.0000E+00
    -18.281  0.0000E+00  0.1600E+02
    -18.179  0.0000E+00  0.1600E+02
    -18.078  0.0000E+00  0.1600E+02
    -17.977  0.0000E+00  0.1600E+02
    -17.876  0.0000E+00  0.1600E+02
    -17.775  0.0000E+00  0.1600E+02
    -17.674  0.0000E+00  0.1600E+02
    -17.573  0.0000E+00  0.1600E+02
    -17.472  0.0000E+00  0.1600E+02
    -17.371  0.0000E+00  0.1600E+02
    -17.270  0.0000E+00  0.1600E+02
    -17.169  0.0000E+00  0.1600E+02
    -17.068  0.0000E+00  0.1600E+02
    -16.967  0.0000E+00  0.1600E+02
    -16.866  0.0000E+00  0.1600E+02
    -16.764  0.0000E+00  0.1600E+02
    -16.663  0.0000E+00  0.1600E+02
    -16.562  0.0000E+00  0.1600E+02
    -16.461  0.0000E+00  0.1600E+02
    -16.360  0.0000E+00  0.4800E+02
    -16.259  0.0000E+00  0.4800E+02
    -16.158  0.0000E+00  0.4800E+02
    -16.057  0.0000E+00  0.4800E+02
    -15.956  0.0000E+00  0.4800E+02
    -15.855  0.0000E+00  0.4800E+02
    -15.754  0.0000E+00  0.4800E+02
    -15.653  0.0000E+00  0.4800E+02
    -15.552  0.0000E+00  0.4800E+02
    -15.451  0.0000E+00  0.4800E+02
    -15.349  0.0000E+00  0.4800E+02
    -15.248  0.0000E+00  0.4800E+02
    -15.147  0.0000E+00  0.4800E+02
    -15.046  0.0000E+00  0.4800E+02
    -14.945  0.0000E+00  0.4800E+02
    -14.844  0.0000E+00  0.4800E+02
    -14.743  0.0000E+00  0.4800E+02
    -14.642  0.0000E+00  0.4800E+02
    -14.541  0.0000E+00  0.4800E+02
    -14.440  0.0000E+00  0.4800E+02
    -14.339  0.0000E+00  0.4800E+02
    -14.238  0.0000E+00  0.4800E+02
    -14.137  0.0000E+00  0.4800E+02
    -14.036  0.0000E+00  0.4800E+02
    -13.934  0.0000E+00  0.4800E+02
    -13.833  0.0000E+00  0.8000E+02
    -13.732  0.0000E+00  0.9600E+02
    -13.631  0.0000E+00  0.9600E+02
    -13.530  0.0000E+00  0.9600E+02
    -13.429  0.0000E+00  0.9600E+02
    -13.328  0.0000E+00  0.9600E+02
    -13.227  0.0000E+00  0.9600E+02
    -13.126  0.0000E+00  0.9600E+02
    -13.025  0.0000E+00  0.9600E+02
    -12.924  0.0000E+00  0.9600E+02
    -12.823  0.0000E+00  0.9600E+02
    -12.722  0.0000E+00  0.9600E+02
    -12.620  0.0000E+00  0.9600E+02
    -12.519  0.0000E+00  0.9600E+02
    -12.418  0.0000E+00  0.9600E+02
    -12.317  0.0000E+00  0.9600E+02
    -12.216  0.0000E+00  0.9600E+02
    -12.115  0.0000E+00  0.9600E+02
    -12.014  0.0000E+00  0.9600E+02
    -11.913  0.0000E+00  0.9600E+02
    -11.812  0.0000E+00  0.9600E+02
    -11.711  0.0000E+00  0.9600E+02
    -11.610  0.0000E+00  0.9600E+02
    -11.509  0.0000E+00  0.9600E+02
    -11.408  0.3232E-07  0.9600E+02
    -11.307  0.0000E+00  0.1120E+03
    -11.205  0.0000E+00  0.1120E+03
    -11.104  0.0000E+00  0.1120E+03
    -11.003  0.0000E+00  0.1120E+03
    -10.902  0.0000E+00  0.1120E+03
    -10.801  0.1466E+01  0.1122E+03
    -10.700  0.0000E+00  0.1141E+03
    -10.599  0.1469E+01  0.1192E+03
    -10.498  0.2959E+01  0.1259E+03
    -10.397  0.0000E+00  0.1291E+03
    -10.296  0.6996E+01  0.1366E+03
    -10.195  0.5758E+01  0.1415E+03
    -10.094  0.2732E+01  0.1445E+03
     -9.993  0.3014E+01  0.1549E+03
     -9.892  0.0000E+00  0.1600E+03
     -9.790  0.0000E+00  0.1600E+03
     -9.689  0.0000E+00  0.1600E+03
     -9.588  0.0000E+00  0.1600E+03
     -9.487  0.0000E+00  0.1600E+03
     -9.386  0.0000E+00  0.1600E+03
     -9.285  0.0000E+00  0.1600E+03
     -9.184  0.0000E+00  0.1600E+03
     -9.083  0.0000E+00  0.1600E+03
     -8.982  0.0000E+00  0.1600E+03
     -8.881  0.0000E+00  0.1600E+03
     -8.780  0.0000E+00  0.1600E+03
     -8.679  0.0000E+00  0.1600E+03
     -8.578  0.0000E+00  0.1600E+03
     -8.477  0.0000E+00  0.1600E+03
     -8.375  0.0000E+00  0.1600E+03
     -8.274  0.0000E+00  0.1600E+03
     -8.173  0.0000E+00  0.1600E+03
     -8.072  0.0000E+00  0.1600E+03
     -7.971  0.0000E+00  0.1600E+03
     -7.870  0.0000E+00  0.1600E+03
     -7.769  0.0000E+00  0.1680E+03
     -7.668  0.3185E+02  0.1873E+03
     -7.567  0.0000E+00  0.1920E+03
     -7.466  0.0000E+00  0.1920E+03
     -7.365  0.0000E+00  0.1920E+03
     -7.264  0.0000E+00  0.1920E+03
     -7.163  0.0000E+00  0.1920E+03
     -7.061  0.0000E+00  0.1920E+03
     -6.960  0.0000E+00  0.1920E+03
     -6.859  0.0000E+00  0.1921E+03
     -6.758  0.0000E+00  0.1925E+03
     -6.657  0.0000E+00  0.1934E+03
     -6.556  0.0000E+00  0.1941E+03
     -6.455  0.1556E+01  0.1946E+03
     -6.354  0.0000E+00  0.1964E+03
     -6.253  0.1465E+01  0.1988E+03
     -6.152  0.2918E+01  0.2003E+03
     -6.051  0.1735E+01  0.2020E+03
     -5.950  0.2904E+01  0.2037E+03
     -5.849  0.1452E+02  0.2104E+03
     -5.748  0.6325E-06  0.2216E+03
     -5.646  0.0000E+00  0.2226E+03
     -5.545  0.0000E+00  0.2235E+03
     -5.444  0.7226E+00  0.2237E+03
     -5.343  0.0000E+00  0.2239E+03
     -5.242  0.0000E+00  0.2240E+03
     -5.141  0.0000E+00  0.2240E+03
     -5.040  0.0000E+00  0.2240E+03
     -4.939  0.0000E+00  0.2240E+03
     -4.838  0.0000E+00  0.2240E+03
     -4.737  0.0000E+00  0.2240E+03
     -4.636  0.0000E+00  0.2240E+03
     -4.535  0.0000E+00  0.2240E+03
     -4.434  0.0000E+00  0.2240E+03
     -4.333  0.0000E+00  0.2240E+03
     -4.231  0.0000E+00  0.2240E+03
     -4.130  0.0000E+00  0.2240E+03
     -4.029  0.0000E+00  0.2240E+03
     -3.928  0.0000E+00  0.2240E+03
     -3.827  0.0000E+00  0.2240E+03
     -3.726  0.0000E+00  0.2240E+03
     -3.625  0.6605E+01  0.2250E+03
     -3.524  0.2345E+02  0.2560E+03
     -3.423  0.0000E+00  0.2560E+03
     -3.322  0.0000E+00  0.2560E+03
     -3.221  0.0000E+00  0.2560E+03
     -3.120  0.0000E+00  0.2560E+03
     -3.019  0.0000E+00  0.2560E+03
     -2.918  0.0000E+00  0.2560E+03
     -2.816  0.0000E+00  0.2560E+03
     -2.715  0.0000E+00  0.2560E+03
     -2.614  0.0000E+00  0.2560E+03
     -2.513  0.0000E+00  0.2560E+03
     -2.412  0.0000E+00  0.2560E+03
     -2.311  0.0000E+00  0.2560E+03
     -2.210  0.7329E+00  0.2561E+03
     -2.109  0.4394E+01  0.2584E+03
     -2.008  0.2336E-11  0.2616E+03
     -1.907  0.1472E-04  0.2638E+03
     -1.806  0.0000E+00  0.2666E+03
     -1.705  0.3094E+01  0.2704E+03
     -1.604  0.1466E+01  0.2740E+03
     -1.502  0.2332E+01  0.2779E+03
     -1.401  0.7329E+00  0.2796E+03
     -1.300  0.0000E+00  0.2800E+03
     -1.199  0.7331E+00  0.2823E+03
     -1.098  0.7329E+00  0.2856E+03
     -0.997  0.2204E+01  0.2894E+03
     -0.896  0.4397E+01  0.2951E+03
     -0.795  0.2914E+01  0.2988E+03
     -0.694  0.2009E+01  0.3018E+03
     -0.593  0.9136E+00  0.3048E+03
     -0.492  0.1453E+01  0.3099E+03
     -0.391  0.5558E+01  0.3169E+03
     -0.290  0.2931E+01  0.3205E+03
     -0.189  0.5213E+01  0.3253E+03
     -0.087  0.5074E+01  0.3321E+03
      0.014  0.8482E+01  0.3410E+03
      0.115  0.4269E+01  0.3493E+03
      0.216  0.2920E+01  0.3530E+03
      0.317  0.3211E+01  0.3576E+03
      0.418  0.2448E+01  0.3618E+03
      0.519  0.7363E+01  0.3686E+03
      0.620  0.1893E+01  0.3756E+03
      0.721  0.5721E+01  0.3824E+03
      0.822  0.3738E+01  0.3902E+03
      0.923  0.1466E+01  0.3940E+03
      1.024  0.7327E+00  0.3963E+03
      1.125  0.0000E+00  0.3979E+03
      1.226  0.7329E+00  0.3993E+03
      1.328  0.0000E+00  0.3995E+03
      1.429  0.0000E+00  0.3999E+03
      1.530  0.0000E+00  0.3999E+03
      1.631  0.0000E+00  0.4000E+03
      1.732  0.0000E+00  0.4000E+03
      1.833  0.0000E+00  0.4000E+03
      1.934  0.0000E+00  0.4000E+03
      2.035  0.0000E+00  0.4000E+03
      2.136  0.0000E+00  0.4000E+03
      2.237  0.0000E+00  0.4001E+03
      2.338  0.0000E+00  0.4001E+03
      2.439  0.0000E+00  0.4003E+03
      2.540  0.0000E+00  0.4004E+03
      2.641  0.0000E+00  0.4006E+03
      2.743  0.1236E+01  0.4011E+03
      2.844  0.1466E+01  0.4016E+03
      2.945  0.7329E+00  0.4021E+03
      3.046  0.4044E-03  0.4025E+03
      3.147  0.2741E+00  0.4034E+03
      3.248  0.2199E+01  0.4044E+03
      3.349  0.0000E+00  0.4051E+03
      3.450  0.3625E+00  0.4060E+03
      3.551  0.4397E+01  0.4076E+03
      3.652  0.1474E+01  0.4088E+03
      3.753  0.0000E+00  0.4093E+03
      3.854  0.7329E+00  0.4102E+03
      3.955  0.2932E+01  0.4117E+03
      4.057  0.2251E-11  0.4130E+03
      4.158  0.7329E+00  0.4140E+03
      4.259  0.7329E+00  0.4157E+03
      4.360  0.6218E+00  0.4172E+03
      4.461  0.2932E+01  0.4196E+03
      4.562  0.2199E+01  0.4209E+03
      4.663  0.4660E-03  0.4219E+03
      4.764  0.0000E+00  0.4227E+03
      4.865  0.0000E+00  0.4236E+03
      4.966  0.7329E+00  0.4243E+03
      5.067  0.0000E+00  0.4250E+03
      5.168  0.0000E+00  0.4261E+03
      5.269  0.2378E-01  0.4271E+03
      5.370  0.1649E-04  0.4287E+03
      5.472  0.2027E+01  0.4313E+03
      5.573  0.3450E+01  0.4342E+03
      5.674  0.0000E+00  0.4370E+03
      5.775  0.2932E+01  0.4396E+03
      5.876  0.2957E+01  0.4419E+03
      5.977  0.1654E+01  0.4448E+03
      6.078  0.2199E+01  0.4486E+03
      6.179  0.2932E+01  0.4528E+03
      6.280  0.3159E+01  0.4572E+03
      6.381  0.3664E+01  0.4614E+03
      6.482  0.8399E+01  0.4672E+03
      6.583  0.3492E+01  0.4732E+03
      6.684  0.2165E+01  0.4773E+03
      6.785  0.1485E+01  0.4802E+03
      6.887  0.2982E+01  0.4839E+03
      6.988  0.1466E+01  0.4893E+03
      7.089  0.1463E+01  0.4926E+03
      7.190  0.1477E+01  0.4977E+03
      7.291  0.2783E+01  0.5023E+03
      7.392  0.1082E+01  0.5060E+03
      7.493  0.5130E+01  0.5109E+03
      7.594  0.2199E+01  0.5158E+03
      7.695  0.3260E+01  0.5208E+03
      7.796  0.5111E+01  0.5261E+03
      7.897  0.4424E+01  0.5321E+03
      7.998  0.3111E+01  0.5368E+03
      8.099  0.6067E+01  0.5411E+03
      8.200  0.6616E+01  0.5465E+03
      8.302  0.5877E+01  0.5519E+03
      8.403  0.5775E+01  0.5580E+03
      8.504  0.3309E+01  0.5653E+03
      8.605  0.4619E+01  0.5713E+03
      8.706  0.4485E+01  0.5773E+03
      8.807  0.3496E+01  0.5822E+03
      8.908  0.3668E+01  0.5889E+03
      9.009  0.5819E+01  0.5936E+03
      9.110  0.2306E+01  0.5974E+03
      9.211  0.3664E+00  0.5997E+03
      9.312  0.0000E+00  0.6000E+03
      9.413  0.0000E+00  0.6000E+03
      9.514  0.0000E+00  0.6000E+03
      9.616  0.0000E+00  0.6000E+03
      9.717  0.0000E+00  0.6000E+03
      9.818  0.0000E+00  0.6000E+03
      9.919  0.0000E+00  0.6000E+03
     10.020  0.0000E+00  0.6000E+03
     10.121  0.0000E+00  0.6000E+03
     10.222  0.0000E+00  0.6000E+03
     10.323  0.0000E+00  0.6000E+03
     10.424  0.0000E+00  0.6000E+03
     10.525  0.0000E+00  0.6000E+03
     10.626  0.0000E+00  0.6000E+03
