       N       E                     dE             d eps       ncg     rms          rms(c)
DAV:   1     0.423314272580E+04    0.42331E+04   -0.19307E+05 32544   0.146E+03
DAV:   2     0.845121307309E+03   -0.33880E+04   -0.31376E+04 35648   0.322E+02
DAV:   3     0.235322296932E+03   -0.60980E+03   -0.58953E+03 43960   0.157E+02
DAV:   4     0.189551927216E+03   -0.45770E+02   -0.44729E+02 44048   0.438E+01
DAV:   5     0.187235092555E+03   -0.23168E+01   -0.23045E+01 50120   0.100E+01    0.982E+01
DAV:   6     0.554151429183E+02   -0.13182E+03   -0.15405E+03 36976   0.503E+01    0.485E+01
DAV:   7    -0.945143067783E+02   -0.14993E+03   -0.15908E+02 39224   0.216E+01    0.283E+01
DAV:   8    -0.203133147375E+03   -0.10862E+03   -0.64160E+01 37368   0.130E+01    0.182E+01
DAV:   9    -0.335777240606E+03   -0.13264E+03   -0.12508E+02 36960   0.163E+01    0.906E+00
DAV:  10    -0.382944259561E+03   -0.47167E+02   -0.49305E+01 37136   0.102E+01    0.666E+00
DAV:  11    -0.409537863375E+03   -0.26594E+02   -0.35166E+01 37752   0.801E+00    0.384E+00
DAV:  12    -0.421212496572E+03   -0.11675E+02   -0.18198E+01 40504   0.549E+00    0.256E+00
DAV:  13    -0.422756745638E+03   -0.15442E+01   -0.23685E+00 40088   0.259E+00    0.208E+00
DAV:  14    -0.423473389546E+03   -0.71664E+00   -0.96456E-01 38296   0.136E+00    0.118E+00
DAV:  15    -0.423528146625E+03   -0.54757E-01   -0.18147E-01 42440   0.719E-01    0.620E-01
DAV:  16    -0.423535164835E+03   -0.70182E-02   -0.32575E-02 40960   0.324E-01    0.385E-01
DAV:  17    -0.423538378363E+03   -0.32135E-02   -0.10415E-02 39056   0.173E-01    0.224E-01
DAV:  18    -0.423540200982E+03   -0.18226E-02   -0.24911E-03 39568   0.911E-02    0.835E-02
DAV:  19    -0.423540579621E+03   -0.37864E-03   -0.58993E-04 42176   0.482E-02    0.463E-02
DAV:  20    -0.423540813105E+03   -0.23348E-03   -0.21282E-04 38464   0.267E-02    0.272E-02
DAV:  21    -0.423540947203E+03   -0.13410E-03   -0.13049E-04 38376   0.189E-02    0.137E-02
DAV:  22    -0.423540957526E+03   -0.10323E-04   -0.16484E-05 43856   0.794E-03    0.954E-03
DAV:  23    -0.423540958722E+03   -0.11962E-05   -0.62785E-06 38168   0.389E-03    0.396E-03
DAV:  24    -0.423540961133E+03   -0.24106E-05   -0.24497E-06 34456   0.292E-03    0.192E-03
DAV:  25    -0.423540961287E+03   -0.15365E-06   -0.61071E-07 42240   0.137E-03    0.124E-03
DAV:  26    -0.423540961236E+03    0.51074E-07   -0.10518E-07 42856   0.703E-04    0.961E-04
DAV:  27    -0.423540961167E+03    0.68729E-07   -0.31651E-08 34552   0.414E-04    0.336E-04
DAV:  28    -0.423540961085E+03    0.81898E-07   -0.22199E-08 30752   0.310E-04    0.242E-04
DAV:  29    -0.423540961079E+03    0.61118E-08   -0.35933E-09 29472   0.156E-04
   1 F= -.42354096E+03 E0= -.42354096E+03  d E =0.000000E+00  mag=     0.0000     0.0000     0.0000
