   2   2   1   0
  0.2002393E+02  0.3840297E-09  0.3840297E-09  0.3840297E-09  0.5000000E-15
  1.000000000000000E-004
  CAR 
 Name                                    
     18.24890444     -9.05577964  301      5.52947244      1.00000000
     -9.056  0.0000E+00  0.0000E+00
     -8.965  0.0000E+00  0.0000E+00
     -8.874  0.0000E+00  0.0000E+00
     -8.783  0.0000E+00  0.0000E+00
     -8.692  0.0000E+00  0.0000E+00
     -8.601  0.0000E+00  0.0000E+00
     -8.510  0.0000E+00  0.0000E+00
     -8.419  0.0000E+00  0.0000E+00
     -8.328  0.0000E+00  0.0000E+00
     -8.237  0.0000E+00  0.0000E+00
     -8.146  0.0000E+00  0.0000E+00
     -8.055  0.0000E+00  0.0000E+00
     -7.964  0.0000E+00  0.0000E+00
     -7.873  0.1129E-16  0.1028E-17
     -7.782  0.1017E+00  0.9259E-02
     -7.691  0.0000E+00  0.9259E-02
     -7.600  0.0000E+00  0.9259E-02
     -7.509  0.0000E+00  0.9259E-02
     -7.417  0.2619E+00  0.3309E-01
     -7.326  0.1857E-11  0.8333E-01
     -7.235  0.6104E+00  0.1389E+00
     -7.144  0.0000E+00  0.1389E+00
     -7.053  0.0000E+00  0.1389E+00
     -6.962  0.0000E+00  0.1389E+00
     -6.871  0.0000E+00  0.1389E+00
     -6.780  0.3817E-02  0.1392E+00
     -6.689  0.1217E+01  0.2500E+00
     -6.598  0.0000E+00  0.2500E+00
     -6.507  0.0000E+00  0.2500E+00
     -6.416  0.4241E-09  0.2500E+00
     -6.325  0.2442E+01  0.4722E+00
     -6.234  0.8139E+00  0.5463E+00
     -6.143  0.0000E+00  0.5463E+00
     -6.052  0.0000E+00  0.5463E+00
     -5.961  0.0000E+00  0.5463E+00
     -5.870  0.0000E+00  0.5463E+00
     -5.779  0.0000E+00  0.5463E+00
     -5.688  0.5676E+00  0.5980E+00
     -5.597  0.0000E+00  0.6019E+00
     -5.506  0.4479E-05  0.6019E+00
     -5.415  0.2442E+01  0.8241E+00
     -5.324  0.6370E-14  0.8241E+00
     -5.233  0.2465E+01  0.1048E+01
     -5.142  0.3837E+00  0.1083E+01
     -5.051  0.3863E+00  0.1118E+01
     -4.960  0.0000E+00  0.1306E+01
     -4.869  0.0000E+00  0.1306E+01
     -4.778  0.0000E+00  0.1306E+01
     -4.687  0.0000E+00  0.1306E+01
     -4.596  0.0000E+00  0.1306E+01
     -4.505  0.0000E+00  0.1306E+01
     -4.414  0.4666E-01  0.1310E+01
     -4.323  0.2395E+01  0.1528E+01
     -4.232  0.6675E-13  0.1528E+01
     -4.141  0.3662E+01  0.1861E+01
     -4.050  0.0000E+00  0.1861E+01
     -3.959  0.0000E+00  0.1861E+01
     -3.868  0.0000E+00  0.1861E+01
     -3.777  0.0000E+00  0.1861E+01
     -3.686  0.0000E+00  0.1861E+01
     -3.595  0.0000E+00  0.1861E+01
     -3.504  0.0000E+00  0.1861E+01
     -3.413  0.0000E+00  0.1861E+01
     -3.322  0.0000E+00  0.1861E+01
     -3.231  0.9312E-07  0.1861E+01
     -3.140  0.6104E+00  0.1917E+01
     -3.049  0.2302E+01  0.2126E+01
     -2.958  0.0000E+00  0.2139E+01
     -2.867  0.0000E+00  0.2139E+01
     -2.776  0.0000E+00  0.2139E+01
     -2.685  0.0000E+00  0.2139E+01
     -2.594  0.0000E+00  0.2139E+01
     -2.503  0.0000E+00  0.2139E+01
     -2.412  0.0000E+00  0.2139E+01
     -2.321  0.0000E+00  0.2139E+01
     -2.230  0.3640E+00  0.2172E+01
     -2.139  0.4201E-07  0.2176E+01
     -2.048  0.2442E+01  0.2398E+01
     -1.957  0.1221E+01  0.2509E+01
     -1.866  0.4080E-06  0.2509E+01
     -1.775  0.4833E+01  0.2949E+01
     -1.684  0.0000E+00  0.2954E+01
     -1.592  0.0000E+00  0.2954E+01
     -1.501  0.0000E+00  0.2954E+01
     -1.410  0.0000E+00  0.2954E+01
     -1.319  0.0000E+00  0.2954E+01
     -1.228  0.0000E+00  0.2954E+01
     -1.137  0.2431E+01  0.3175E+01
     -1.046  0.0000E+00  0.3176E+01
     -0.955  0.0000E+00  0.3176E+01
     -0.864  0.0000E+00  0.3176E+01
     -0.773  0.3834E-02  0.3176E+01
     -0.682  0.2438E+01  0.3398E+01
     -0.591  0.0000E+00  0.3398E+01
     -0.500  0.0000E+00  0.3398E+01
     -0.409  0.4112E-01  0.3402E+01
     -0.318  0.7727E+00  0.3472E+01
     -0.227  0.0000E+00  0.3472E+01
     -0.136  0.0000E+00  0.3472E+01
     -0.045  0.1036E+00  0.3482E+01
      0.046  0.0000E+00  0.3528E+01
      0.137  0.0000E+00  0.3528E+01
      0.228  0.0000E+00  0.3528E+01
      0.319  0.0000E+00  0.3528E+01
      0.410  0.0000E+00  0.3528E+01
      0.501  0.0000E+00  0.3528E+01
      0.592  0.1381E-01  0.3529E+01
      0.683  0.3648E+01  0.3861E+01
      0.774  0.0000E+00  0.3861E+01
      0.865  0.0000E+00  0.3861E+01
      0.956  0.0000E+00  0.3861E+01
      1.047  0.0000E+00  0.3861E+01
      1.138  0.2442E+01  0.4083E+01
      1.229  0.0000E+00  0.4083E+01
      1.320  0.0000E+00  0.4083E+01
      1.411  0.3715E+00  0.4117E+01
      1.502  0.6181E+00  0.4251E+01
      1.593  0.3042E+01  0.4694E+01
      1.684  0.0000E+00  0.4861E+01
      1.775  0.0000E+00  0.4861E+01
      1.866  0.0000E+00  0.4861E+01
      1.957  0.0000E+00  0.4861E+01
      2.048  0.0000E+00  0.4861E+01
      2.139  0.1229E-07  0.4861E+01
      2.230  0.2442E+01  0.5083E+01
      2.321  0.3411E-02  0.5084E+01
      2.412  0.6070E+00  0.5139E+01
      2.503  0.4878E+01  0.5583E+01
      2.594  0.0000E+00  0.5583E+01
      2.685  0.2323E+01  0.5795E+01
      2.776  0.2362E-13  0.5806E+01
      2.867  0.1221E+01  0.5917E+01
      2.958  0.2034E+01  0.6102E+01
      3.049  0.2442E+01  0.6324E+01
      3.140  0.2212E-03  0.6324E+01
      3.231  0.1221E+01  0.6435E+01
      3.322  0.6104E+00  0.6491E+01
      3.413  0.2441E+01  0.6713E+01
      3.504  0.4643E-05  0.6713E+01
      3.595  0.4847E+01  0.7154E+01
      3.686  0.0000E+00  0.7157E+01
      3.777  0.0000E+00  0.7157E+01
      3.868  0.0000E+00  0.7157E+01
      3.959  0.0000E+00  0.7157E+01
      4.050  0.9293E-01  0.7166E+01
      4.141  0.2350E+01  0.7380E+01
      4.232  0.2033E+01  0.7565E+01
      4.324  0.0000E+00  0.7565E+01
      4.415  0.1628E+01  0.7713E+01
      4.506  0.0000E+00  0.7713E+01
      4.597  0.0000E+00  0.7713E+01
      4.688  0.0000E+00  0.7713E+01
      4.779  0.0000E+00  0.7713E+01
      4.870  0.9784E+00  0.7802E+01
      4.961  0.3215E-07  0.7824E+01
      5.052  0.1628E+01  0.7972E+01
      5.143  0.0000E+00  0.7972E+01
      5.234  0.0000E+00  0.7972E+01
      5.325  0.0000E+00  0.7972E+01
      5.416  0.1186E-15  0.7972E+01
      5.507  0.3052E+00  0.8000E+01
      5.598  0.0000E+00  0.8000E+01
      5.689  0.0000E+00  0.8000E+01
      5.780  0.0000E+00  0.8000E+01
      5.871  0.0000E+00  0.8000E+01
      5.962  0.0000E+00  0.8000E+01
      6.053  0.0000E+00  0.8000E+01
      6.144  0.0000E+00  0.8000E+01
      6.235  0.0000E+00  0.8000E+01
      6.326  0.0000E+00  0.8000E+01
      6.417  0.0000E+00  0.8000E+01
      6.508  0.0000E+00  0.8000E+01
      6.599  0.0000E+00  0.8000E+01
      6.690  0.0000E+00  0.8000E+01
      6.781  0.7608E+00  0.8069E+01
      6.872  0.0000E+00  0.8111E+01
      6.963  0.0000E+00  0.8111E+01
      7.054  0.0000E+00  0.8111E+01
      7.145  0.1089E+01  0.8210E+01
      7.236  0.0000E+00  0.8333E+01
      7.327  0.0000E+00  0.8333E+01
      7.418  0.0000E+00  0.8333E+01
      7.509  0.0000E+00  0.8333E+01
      7.600  0.0000E+00  0.8333E+01
      7.691  0.4049E+00  0.8370E+01
      7.782  0.4069E+00  0.8481E+01
      7.873  0.6102E+00  0.8537E+01
      7.964  0.6187E+00  0.8593E+01
      8.055  0.1195E-12  0.8611E+01
      8.146  0.2936E+01  0.8878E+01
      8.237  0.2441E+01  0.9111E+01
      8.328  0.0000E+00  0.9111E+01
      8.419  0.0000E+00  0.9111E+01
      8.510  0.0000E+00  0.9111E+01
      8.601  0.7988E+00  0.9184E+01
      8.692  0.2438E+01  0.9407E+01
      8.783  0.1965E-02  0.9408E+01
      8.874  0.3033E+00  0.9435E+01
      8.965  0.4883E+01  0.9880E+01
      9.056  0.8772E+00  0.9959E+01
      9.147  0.0000E+00  0.1010E+02
      9.238  0.0000E+00  0.1010E+02
      9.329  0.1596E-01  0.1010E+02
      9.420  0.1205E+01  0.1021E+02
      9.511  0.1627E+01  0.1036E+02
      9.602  0.2492E+01  0.1059E+02
      9.693  0.0000E+00  0.1066E+02
      9.784  0.3455E-01  0.1066E+02
      9.875  0.4139E+01  0.1104E+02
      9.966  0.3650E+01  0.1137E+02
     10.057  0.4619E-03  0.1137E+02
     10.149  0.1220E+01  0.1148E+02
     10.240  0.0000E+00  0.1148E+02
     10.331  0.0000E+00  0.1148E+02
     10.422  0.5225E+01  0.1196E+02
     10.513  0.0000E+00  0.1215E+02
     10.604  0.3324E+01  0.1245E+02
     10.695  0.8959E+00  0.1267E+02
     10.786  0.1355E-15  0.1276E+02
     10.877  0.2442E+01  0.1298E+02
     10.968  0.2345E-02  0.1298E+02
     11.059  0.2439E+01  0.1320E+02
     11.150  0.0000E+00  0.1320E+02
     11.241  0.0000E+00  0.1320E+02
     11.332  0.0000E+00  0.1320E+02
     11.423  0.0000E+00  0.1320E+02
     11.514  0.2442E+01  0.1343E+02
     11.605  0.0000E+00  0.1343E+02
     11.696  0.0000E+00  0.1343E+02
     11.787  0.0000E+00  0.1343E+02
     11.878  0.4355E-13  0.1343E+02
     11.969  0.8139E+00  0.1350E+02
     12.060  0.2415E-08  0.1350E+02
     12.151  0.1243E+01  0.1361E+02
     12.242  0.1199E+01  0.1372E+02
     12.333  0.0000E+00  0.1372E+02
     12.424  0.0000E+00  0.1372E+02
     12.515  0.6143E-01  0.1373E+02
     12.606  0.2380E+01  0.1394E+02
     12.697  0.0000E+00  0.1394E+02
     12.788  0.0000E+00  0.1394E+02
     12.879  0.1016E-03  0.1394E+02
     12.970  0.2441E+01  0.1417E+02
     13.061  0.2701E+01  0.1441E+02
     13.152  0.0000E+00  0.1450E+02
     13.243  0.1268E-11  0.1450E+02
     13.334  0.2442E+01  0.1472E+02
     13.425  0.0000E+00  0.1472E+02
     13.516  0.0000E+00  0.1472E+02
     13.607  0.1168E-02  0.1472E+02
     13.698  0.3661E+01  0.1506E+02
     13.789  0.7776E-09  0.1506E+02
     13.880  0.3656E+01  0.1539E+02
     13.971  0.0000E+00  0.1539E+02
     14.062  0.2457E+01  0.1561E+02
     14.153  0.2832E+01  0.1587E+02
     14.244  0.0000E+00  0.1587E+02
     14.335  0.2196E+00  0.1589E+02
     14.426  0.0000E+00  0.1594E+02
     14.517  0.0000E+00  0.1594E+02
     14.608  0.0000E+00  0.1594E+02
     14.699  0.0000E+00  0.1594E+02
     14.790  0.0000E+00  0.1594E+02
     14.881  0.0000E+00  0.1594E+02
     14.972  0.0000E+00  0.1594E+02
     15.063  0.0000E+00  0.1594E+02
     15.154  0.0000E+00  0.1594E+02
     15.245  0.0000E+00  0.1594E+02
     15.336  0.0000E+00  0.1594E+02
     15.427  0.0000E+00  0.1594E+02
     15.518  0.0000E+00  0.1594E+02
     15.609  0.0000E+00  0.1594E+02
     15.700  0.0000E+00  0.1594E+02
     15.791  0.0000E+00  0.1594E+02
     15.882  0.0000E+00  0.1594E+02
     15.974  0.0000E+00  0.1594E+02
     16.065  0.0000E+00  0.1594E+02
     16.156  0.0000E+00  0.1594E+02
     16.247  0.0000E+00  0.1594E+02
     16.338  0.0000E+00  0.1594E+02
     16.429  0.0000E+00  0.1594E+02
     16.520  0.0000E+00  0.1594E+02
     16.611  0.0000E+00  0.1594E+02
     16.702  0.0000E+00  0.1594E+02
     16.793  0.0000E+00  0.1594E+02
     16.884  0.0000E+00  0.1594E+02
     16.975  0.5211E+00  0.1599E+02
     17.066  0.0000E+00  0.1600E+02
     17.157  0.0000E+00  0.1600E+02
     17.248  0.0000E+00  0.1600E+02
     17.339  0.0000E+00  0.1600E+02
     17.430  0.0000E+00  0.1600E+02
     17.521  0.0000E+00  0.1600E+02
     17.612  0.0000E+00  0.1600E+02
     17.703  0.0000E+00  0.1600E+02
     17.794  0.0000E+00  0.1600E+02
     17.885  0.0000E+00  0.1600E+02
     17.976  0.0000E+00  0.1600E+02
     18.067  0.0000E+00  0.1600E+02
     18.158  0.0000E+00  0.1600E+02
     18.249  0.0000E+00  0.1600E+02
     18.24890444     -9.05577964  301      5.52947244      1.00000000
     -9.056  0.0000E+00  0.0000E+00  0.0000E+00
     -8.965  0.0000E+00  0.0000E+00  0.0000E+00
     -8.874  0.0000E+00  0.0000E+00  0.0000E+00
     -8.783  0.0000E+00  0.0000E+00  0.0000E+00
     -8.692  0.0000E+00  0.0000E+00  0.0000E+00
     -8.601  0.0000E+00  0.0000E+00  0.0000E+00
     -8.510  0.0000E+00  0.0000E+00  0.0000E+00
     -8.419  0.0000E+00  0.0000E+00  0.0000E+00
     -8.328  0.0000E+00  0.0000E+00  0.0000E+00
     -8.237  0.0000E+00  0.0000E+00  0.0000E+00
     -8.146  0.0000E+00  0.0000E+00  0.0000E+00
     -8.055  0.0000E+00  0.0000E+00  0.0000E+00
     -7.964  0.0000E+00  0.0000E+00  0.0000E+00
     -7.873  0.2481E-17  0.8665E-32  0.0000E+00
     -7.782  0.2235E-01  0.7805E-16  0.0000E+00
     -7.691  0.0000E+00  0.0000E+00  0.0000E+00
     -7.600  0.0000E+00  0.0000E+00  0.0000E+00
     -7.509  0.0000E+00  0.0000E+00  0.0000E+00
     -7.417  0.5703E-01  0.1033E-02  0.0000E+00
     -7.326  0.4028E-12  0.1011E-13  0.0000E+00
     -7.235  0.1324E+00  0.3322E-02  0.0000E+00
     -7.144  0.0000E+00  0.0000E+00  0.0000E+00
     -7.053  0.0000E+00  0.0000E+00  0.0000E+00
     -6.962  0.0000E+00  0.0000E+00  0.0000E+00
     -6.871  0.0000E+00  0.0000E+00  0.0000E+00
     -6.780  0.8220E-03  0.3839E-04  0.0000E+00
     -6.689  0.2621E+00  0.1224E-01  0.0000E+00
     -6.598  0.0000E+00  0.0000E+00  0.0000E+00
     -6.507  0.0000E+00  0.0000E+00  0.0000E+00
     -6.416  0.9068E-10  0.5842E-11  0.0000E+00
     -6.325  0.5221E+00  0.3363E-01  0.0000E+00
     -6.234  0.1761E+00  0.1060E-01  0.0000E+00
     -6.143  0.0000E+00  0.0000E+00  0.0000E+00
     -6.052  0.0000E+00  0.0000E+00  0.0000E+00
     -5.961  0.0000E+00  0.0000E+00  0.0000E+00
     -5.870  0.0000E+00  0.0000E+00  0.0000E+00
     -5.779  0.0000E+00  0.0000E+00  0.0000E+00
     -5.688  0.1186E+00  0.1211E-01  0.0000E+00
     -5.597  0.0000E+00  0.0000E+00  0.0000E+00
     -5.506  0.9724E-06  0.8512E-07  0.0000E+00
     -5.415  0.5301E+00  0.4640E-01  0.0000E+00
     -5.324  0.1349E-14  0.1484E-15  0.0000E+00
     -5.233  0.5225E+00  0.5720E-01  0.0000E+00
     -5.142  0.8838E-01  0.5483E-02  0.0000E+00
     -5.051  0.8577E-01  0.7717E-02  0.0000E+00
     -4.960  0.0000E+00  0.0000E+00  0.0000E+00
     -4.869  0.0000E+00  0.0000E+00  0.0000E+00
     -4.778  0.0000E+00  0.0000E+00  0.0000E+00
     -4.687  0.0000E+00  0.0000E+00  0.0000E+00
     -4.596  0.0000E+00  0.0000E+00  0.0000E+00
     -4.505  0.0000E+00  0.0000E+00  0.0000E+00
     -4.414  0.9689E-02  0.1504E-02  0.0000E+00
     -4.323  0.4973E+00  0.7717E-01  0.0000E+00
     -4.232  0.1459E-13  0.1938E-14  0.0000E+00
     -4.141  0.8037E+00  0.1049E+00  0.0000E+00
     -4.050  0.0000E+00  0.0000E+00  0.0000E+00
     -3.959  0.0000E+00  0.0000E+00  0.0000E+00
     -3.868  0.0000E+00  0.0000E+00  0.0000E+00
     -3.777  0.0000E+00  0.0000E+00  0.0000E+00
     -3.686  0.0000E+00  0.0000E+00  0.0000E+00
     -3.595  0.0000E+00  0.0000E+00  0.0000E+00
     -3.504  0.0000E+00  0.0000E+00  0.0000E+00
     -3.413  0.0000E+00  0.0000E+00  0.0000E+00
     -3.322  0.0000E+00  0.0000E+00  0.0000E+00
     -3.231  0.1832E-07  0.4364E-08  0.0000E+00
     -3.140  0.1201E+00  0.2861E-01  0.0000E+00
     -3.049  0.4709E+00  0.1032E+00  0.0000E+00
     -2.958  0.0000E+00  0.0000E+00  0.0000E+00
     -2.867  0.0000E+00  0.0000E+00  0.0000E+00
     -2.776  0.0000E+00  0.0000E+00  0.0000E+00
     -2.685  0.0000E+00  0.0000E+00  0.0000E+00
     -2.594  0.0000E+00  0.0000E+00  0.0000E+00
     -2.503  0.0000E+00  0.0000E+00  0.0000E+00
     -2.412  0.0000E+00  0.0000E+00  0.0000E+00
     -2.321  0.0000E+00  0.0000E+00  0.0000E+00
     -2.230  0.3631E-01  0.3502E-01  0.0000E+00
     -2.139  0.7042E-08  0.2896E-08  0.0000E+00
     -2.048  0.4093E+00  0.1683E+00  0.0000E+00
     -1.957  0.2171E+00  0.7949E-01  0.0000E+00
     -1.866  0.5011E-07  0.3652E-07  0.0000E+00
     -1.775  0.7471E+00  0.3693E+00  0.0000E+00
     -1.684  0.0000E+00  0.0000E+00  0.0000E+00
     -1.592  0.0000E+00  0.0000E+00  0.0000E+00
     -1.501  0.0000E+00  0.0000E+00  0.0000E+00
     -1.410  0.0000E+00  0.0000E+00  0.0000E+00
     -1.319  0.0000E+00  0.0000E+00  0.0000E+00
     -1.228  0.0000E+00  0.0000E+00  0.0000E+00
     -1.137  0.3085E+00  0.2255E+00  0.0000E+00
     -1.046  0.0000E+00  0.0000E+00  0.0000E+00
     -0.955  0.0000E+00  0.0000E+00  0.0000E+00
     -0.864  0.0000E+00  0.0000E+00  0.0000E+00
     -0.773  0.6525E-03  0.3038E-03  0.0000E+00
     -0.682  0.4149E+00  0.1932E+00  0.0000E+00
     -0.591  0.0000E+00  0.0000E+00  0.0000E+00
     -0.500  0.0000E+00  0.0000E+00  0.0000E+00
     -0.409  0.4338E-02  0.4379E-02  0.0000E+00
     -0.318  0.8152E-01  0.8230E-01  0.0000E+00
     -0.227  0.0000E+00  0.0000E+00  0.0000E+00
     -0.136  0.0000E+00  0.0000E+00  0.0000E+00
     -0.045  0.1804E-01  0.8518E-02  0.0000E+00
      0.046  0.0000E+00  0.0000E+00  0.0000E+00
      0.137  0.0000E+00  0.0000E+00  0.0000E+00
      0.228  0.0000E+00  0.0000E+00  0.0000E+00
      0.319  0.0000E+00  0.0000E+00  0.0000E+00
      0.410  0.0000E+00  0.0000E+00  0.0000E+00
      0.501  0.0000E+00  0.0000E+00  0.0000E+00
      0.592  0.1741E-02  0.1486E-02  0.0000E+00
      0.683  0.3105E+00  0.4507E+00  0.0000E+00
      0.774  0.0000E+00  0.0000E+00  0.0000E+00
      0.865  0.0000E+00  0.0000E+00  0.0000E+00
      0.956  0.0000E+00  0.0000E+00  0.0000E+00
      1.047  0.0000E+00  0.0000E+00  0.0000E+00
      1.138  0.4596E-01  0.3769E+00  0.0000E+00
      1.229  0.0000E+00  0.0000E+00  0.0000E+00
      1.320  0.0000E+00  0.0000E+00  0.0000E+00
      1.411  0.4468E-01  0.4359E-01  0.0000E+00
      1.502  0.1018E-02  0.1048E+00  0.0000E+00
      1.593  0.1934E-01  0.5079E+00  0.0000E+00
      1.684  0.0000E+00  0.0000E+00  0.0000E+00
      1.775  0.0000E+00  0.0000E+00  0.0000E+00
      1.866  0.0000E+00  0.0000E+00  0.0000E+00
      1.957  0.0000E+00  0.0000E+00  0.0000E+00
      2.048  0.0000E+00  0.0000E+00  0.0000E+00
      2.139  0.3949E-09  0.1974E-08  0.0000E+00
      2.230  0.7844E-01  0.3922E+00  0.0000E+00
      2.321  0.1957E-17  0.6791E-03  0.0000E+00
      2.412  0.3483E-15  0.1208E+00  0.0000E+00
      2.503  0.9790E-01  0.8402E+00  0.0000E+00
      2.594  0.0000E+00  0.0000E+00  0.0000E+00
      2.685  0.8295E-14  0.4664E+00  0.0000E+00
      2.776  0.5388E-28  0.4712E-14  0.0000E+00
      2.867  0.2950E-05  0.2436E+00  0.0000E+00
      2.958  0.7271E-01  0.3327E+00  0.0000E+00
      3.049  0.1040E-01  0.4602E+00  0.0000E+00
      3.140  0.2628E-18  0.4543E-04  0.0000E+00
      3.231  0.1450E-14  0.2506E+00  0.0000E+00
      3.322  0.7093E-01  0.8251E-01  0.0000E+00
      3.413  0.7459E-01  0.4276E+00  0.0000E+00
      3.504  0.1165E-18  0.9688E-06  0.0000E+00
      3.595  0.3569E-12  0.9993E+00  0.0000E+00
      3.686  0.0000E+00  0.0000E+00  0.0000E+00
      3.777  0.0000E+00  0.0000E+00  0.0000E+00
      3.868  0.0000E+00  0.0000E+00  0.0000E+00
      3.959  0.0000E+00  0.0000E+00  0.0000E+00
      4.050  0.2811E-13  0.2000E-01  0.0000E+00
      4.141  0.7104E-12  0.5059E+00  0.0000E+00
      4.232  0.4490E-13  0.4270E+00  0.0000E+00
      4.324  0.0000E+00  0.0000E+00  0.0000E+00
      4.415  0.1267E-13  0.3541E+00  0.0000E+00
      4.506  0.0000E+00  0.0000E+00  0.0000E+00
      4.597  0.0000E+00  0.0000E+00  0.0000E+00
      4.688  0.0000E+00  0.0000E+00  0.0000E+00
      4.779  0.0000E+00  0.0000E+00  0.0000E+00
      4.870  0.2095E-13  0.2170E+00  0.0000E+00
      4.961  0.1086E-21  0.6914E-08  0.0000E+00
      5.052  0.5498E-14  0.3501E+00  0.0000E+00
      5.143  0.0000E+00  0.0000E+00  0.0000E+00
      5.234  0.0000E+00  0.0000E+00  0.0000E+00
      5.325  0.0000E+00  0.0000E+00  0.0000E+00
      5.416  0.3809E-29  0.2579E-16  0.0000E+00
      5.507  0.9802E-14  0.6637E-01  0.0000E+00
      5.598  0.0000E+00  0.0000E+00  0.0000E+00
      5.689  0.0000E+00  0.0000E+00  0.0000E+00
      5.780  0.0000E+00  0.0000E+00  0.0000E+00
      5.871  0.0000E+00  0.0000E+00  0.0000E+00
      5.962  0.0000E+00  0.0000E+00  0.0000E+00
      6.053  0.0000E+00  0.0000E+00  0.0000E+00
      6.144  0.0000E+00  0.0000E+00  0.0000E+00
      6.235  0.0000E+00  0.0000E+00  0.0000E+00
      6.326  0.0000E+00  0.0000E+00  0.0000E+00
      6.417  0.0000E+00  0.0000E+00  0.0000E+00
      6.508  0.0000E+00  0.0000E+00  0.0000E+00
      6.599  0.0000E+00  0.0000E+00  0.0000E+00
      6.690  0.0000E+00  0.0000E+00  0.0000E+00
      6.781  0.3991E-01  0.2887E-01  0.0000E+00
      6.872  0.0000E+00  0.0000E+00  0.0000E+00
      6.963  0.0000E+00  0.0000E+00  0.0000E+00
      7.054  0.0000E+00  0.0000E+00  0.0000E+00
      7.145  0.5565E-01  0.4525E-01  0.0000E+00
      7.236  0.0000E+00  0.0000E+00  0.0000E+00
      7.327  0.0000E+00  0.0000E+00  0.0000E+00
      7.418  0.0000E+00  0.0000E+00  0.0000E+00
      7.509  0.0000E+00  0.0000E+00  0.0000E+00
      7.600  0.0000E+00  0.0000E+00  0.0000E+00
      7.691  0.2201E-01  0.1766E-01  0.0000E+00
      7.782  0.7677E-01  0.7194E-02  0.0000E+00
      7.873  0.1868E-01  0.6138E-01  0.0000E+00
      7.964  0.1078E+00  0.1882E-01  0.0000E+00
      8.055  0.5084E-14  0.1005E-13  0.0000E+00
      8.146  0.1255E+00  0.2192E+00  0.0000E+00
      8.237  0.1571E+00  0.1372E+00  0.0000E+00
      8.328  0.0000E+00  0.0000E+00  0.0000E+00
      8.419  0.0000E+00  0.0000E+00  0.0000E+00
      8.510  0.0000E+00  0.0000E+00  0.0000E+00
      8.601  0.9769E-01  0.5921E-01  0.0000E+00
      8.692  0.1987E+00  0.1482E+00  0.0000E+00
      8.783  0.1341E-14  0.2958E-03  0.0000E+00
      8.874  0.1868E-05  0.4566E-01  0.0000E+00
      8.965  0.1666E+00  0.3399E+00  0.0000E+00
      9.056  0.2687E-01  0.8497E-01  0.0000E+00
      9.147  0.0000E+00  0.0000E+00  0.0000E+00
      9.238  0.0000E+00  0.0000E+00  0.0000E+00
      9.329  0.1510E-02  0.1443E-02  0.0000E+00
      9.420  0.1140E+00  0.1089E+00  0.0000E+00
      9.511  0.6018E-12  0.2472E+00  0.0000E+00
      9.602  0.1949E-01  0.1998E+00  0.0000E+00
      9.693  0.0000E+00  0.0000E+00  0.0000E+00
      9.784  0.1193E-02  0.3496E-02  0.0000E+00
      9.875  0.1896E+00  0.3814E+00  0.0000E+00
      9.966  0.3680E-01  0.3159E+00  0.0000E+00
     10.057  0.1502E-04  0.5342E-04  0.0000E+00
     10.149  0.3970E-01  0.1411E+00  0.0000E+00
     10.240  0.0000E+00  0.0000E+00  0.0000E+00
     10.331  0.0000E+00  0.0000E+00  0.0000E+00
     10.422  0.2921E+00  0.4338E+00  0.0000E+00
     10.513  0.0000E+00  0.0000E+00  0.0000E+00
     10.604  0.6652E-01  0.3593E+00  0.0000E+00
     10.695  0.6963E-01  0.8232E-01  0.0000E+00
     10.786  0.4970E-17  0.1405E-16  0.0000E+00
     10.877  0.8953E-01  0.2531E+00  0.0000E+00
     10.968  0.6282E-15  0.2427E-03  0.0000E+00
     11.059  0.6534E-12  0.2524E+00  0.0000E+00
     11.150  0.0000E+00  0.0000E+00  0.0000E+00
     11.241  0.0000E+00  0.0000E+00  0.0000E+00
     11.332  0.0000E+00  0.0000E+00  0.0000E+00
     11.423  0.0000E+00  0.0000E+00  0.0000E+00
     11.514  0.9272E-10  0.3331E+00  0.0000E+00
     11.605  0.0000E+00  0.0000E+00  0.0000E+00
     11.696  0.0000E+00  0.0000E+00  0.0000E+00
     11.787  0.0000E+00  0.0000E+00  0.0000E+00
     11.878  0.8068E-14  0.4804E-14  0.0000E+00
     11.969  0.1508E+00  0.8978E-01  0.0000E+00
     12.060  0.1814E-09  0.2158E-09  0.0000E+00
     12.151  0.9182E-01  0.1106E+00  0.0000E+00
     12.242  0.5042E-02  0.8469E-01  0.0000E+00
     12.333  0.0000E+00  0.0000E+00  0.0000E+00
     12.424  0.0000E+00  0.0000E+00  0.0000E+00
     12.515  0.1163E-02  0.4776E-02  0.0000E+00
     12.606  0.4504E-01  0.1850E+00  0.0000E+00
     12.697  0.0000E+00  0.0000E+00  0.0000E+00
     12.788  0.0000E+00  0.0000E+00  0.0000E+00
     12.879  0.2367E-05  0.1027E-04  0.0000E+00
     12.970  0.5689E-01  0.2469E+00  0.0000E+00
     13.061  0.5208E-01  0.3575E+00  0.0000E+00
     13.152  0.0000E+00  0.0000E+00  0.0000E+00
     13.243  0.3756E-13  0.1371E-12  0.0000E+00
     13.334  0.7231E-01  0.2639E+00  0.0000E+00
     13.425  0.0000E+00  0.0000E+00  0.0000E+00
     13.516  0.0000E+00  0.0000E+00  0.0000E+00
     13.607  0.6180E-05  0.1682E-03  0.0000E+00
     13.698  0.8310E-01  0.4983E+00  0.0000E+00
     13.789  0.2523E-10  0.8232E-10  0.0000E+00
     13.880  0.7922E-01  0.4563E+00  0.0000E+00
     13.971  0.0000E+00  0.0000E+00  0.0000E+00
     14.062  0.7369E-03  0.2966E+00  0.0000E+00
     14.153  0.1090E+00  0.3522E+00  0.0000E+00
     14.244  0.0000E+00  0.0000E+00  0.0000E+00
     14.335  0.2248E-02  0.2257E-01  0.0000E+00
     14.426  0.0000E+00  0.0000E+00  0.0000E+00
     14.517  0.0000E+00  0.0000E+00  0.0000E+00
     14.608  0.0000E+00  0.0000E+00  0.0000E+00
     14.699  0.0000E+00  0.0000E+00  0.0000E+00
     14.790  0.0000E+00  0.0000E+00  0.0000E+00
     14.881  0.0000E+00  0.0000E+00  0.0000E+00
     14.972  0.0000E+00  0.0000E+00  0.0000E+00
     15.063  0.0000E+00  0.0000E+00  0.0000E+00
     15.154  0.0000E+00  0.0000E+00  0.0000E+00
     15.245  0.0000E+00  0.0000E+00  0.0000E+00
     15.336  0.0000E+00  0.0000E+00  0.0000E+00
     15.427  0.0000E+00  0.0000E+00  0.0000E+00
     15.518  0.0000E+00  0.0000E+00  0.0000E+00
     15.609  0.0000E+00  0.0000E+00  0.0000E+00
     15.700  0.0000E+00  0.0000E+00  0.0000E+00
     15.791  0.0000E+00  0.0000E+00  0.0000E+00
     15.882  0.0000E+00  0.0000E+00  0.0000E+00
     15.974  0.0000E+00  0.0000E+00  0.0000E+00
     16.065  0.0000E+00  0.0000E+00  0.0000E+00
     16.156  0.0000E+00  0.0000E+00  0.0000E+00
     16.247  0.0000E+00  0.0000E+00  0.0000E+00
     16.338  0.0000E+00  0.0000E+00  0.0000E+00
     16.429  0.0000E+00  0.0000E+00  0.0000E+00
     16.520  0.0000E+00  0.0000E+00  0.0000E+00
     16.611  0.0000E+00  0.0000E+00  0.0000E+00
     16.702  0.0000E+00  0.0000E+00  0.0000E+00
     16.793  0.0000E+00  0.0000E+00  0.0000E+00
     16.884  0.0000E+00  0.0000E+00  0.0000E+00
     16.975  0.1090E-05  0.1228E+00  0.0000E+00
     17.066  0.0000E+00  0.0000E+00  0.0000E+00
     17.157  0.0000E+00  0.0000E+00  0.0000E+00
     17.248  0.0000E+00  0.0000E+00  0.0000E+00
     17.339  0.0000E+00  0.0000E+00  0.0000E+00
     17.430  0.0000E+00  0.0000E+00  0.0000E+00
     17.521  0.0000E+00  0.0000E+00  0.0000E+00
     17.612  0.0000E+00  0.0000E+00  0.0000E+00
     17.703  0.0000E+00  0.0000E+00  0.0000E+00
     17.794  0.0000E+00  0.0000E+00  0.0000E+00
     17.885  0.0000E+00  0.0000E+00  0.0000E+00
     17.976  0.0000E+00  0.0000E+00  0.0000E+00
     18.067  0.0000E+00  0.0000E+00  0.0000E+00
     18.158  0.0000E+00  0.0000E+00  0.0000E+00
     18.249  0.0000E+00  0.0000E+00  0.0000E+00
     18.24890444     -9.05577964  301      5.52947244      1.00000000
     -9.056  0.0000E+00  0.0000E+00  0.0000E+00
     -8.965  0.0000E+00  0.0000E+00  0.0000E+00
     -8.874  0.0000E+00  0.0000E+00  0.0000E+00
     -8.783  0.0000E+00  0.0000E+00  0.0000E+00
     -8.692  0.0000E+00  0.0000E+00  0.0000E+00
     -8.601  0.0000E+00  0.0000E+00  0.0000E+00
     -8.510  0.0000E+00  0.0000E+00  0.0000E+00
     -8.419  0.0000E+00  0.0000E+00  0.0000E+00
     -8.328  0.0000E+00  0.0000E+00  0.0000E+00
     -8.237  0.0000E+00  0.0000E+00  0.0000E+00
     -8.146  0.0000E+00  0.0000E+00  0.0000E+00
     -8.055  0.0000E+00  0.0000E+00  0.0000E+00
     -7.964  0.0000E+00  0.0000E+00  0.0000E+00
     -7.873  0.2481E-17  0.2245E-31  0.0000E+00
     -7.782  0.2235E-01  0.2022E-15  0.0000E+00
     -7.691  0.0000E+00  0.0000E+00  0.0000E+00
     -7.600  0.0000E+00  0.0000E+00  0.0000E+00
     -7.509  0.0000E+00  0.0000E+00  0.0000E+00
     -7.417  0.5703E-01  0.1033E-02  0.0000E+00
     -7.326  0.4028E-12  0.1011E-13  0.0000E+00
     -7.235  0.1324E+00  0.3322E-02  0.0000E+00
     -7.144  0.0000E+00  0.0000E+00  0.0000E+00
     -7.053  0.0000E+00  0.0000E+00  0.0000E+00
     -6.962  0.0000E+00  0.0000E+00  0.0000E+00
     -6.871  0.0000E+00  0.0000E+00  0.0000E+00
     -6.780  0.8220E-03  0.3839E-04  0.0000E+00
     -6.689  0.2621E+00  0.1224E-01  0.0000E+00
     -6.598  0.0000E+00  0.0000E+00  0.0000E+00
     -6.507  0.0000E+00  0.0000E+00  0.0000E+00
     -6.416  0.9068E-10  0.5843E-11  0.0000E+00
     -6.325  0.5221E+00  0.3363E-01  0.0000E+00
     -6.234  0.1761E+00  0.1060E-01  0.0000E+00
     -6.143  0.0000E+00  0.0000E+00  0.0000E+00
     -6.052  0.0000E+00  0.0000E+00  0.0000E+00
     -5.961  0.0000E+00  0.0000E+00  0.0000E+00
     -5.870  0.0000E+00  0.0000E+00  0.0000E+00
     -5.779  0.0000E+00  0.0000E+00  0.0000E+00
     -5.688  0.1186E+00  0.1211E-01  0.0000E+00
     -5.597  0.0000E+00  0.0000E+00  0.0000E+00
     -5.506  0.9724E-06  0.8512E-07  0.0000E+00
     -5.415  0.5300E+00  0.4640E-01  0.0000E+00
     -5.324  0.1349E-14  0.1484E-15  0.0000E+00
     -5.233  0.5225E+00  0.5720E-01  0.0000E+00
     -5.142  0.8838E-01  0.5483E-02  0.0000E+00
     -5.051  0.8577E-01  0.7717E-02  0.0000E+00
     -4.960  0.0000E+00  0.0000E+00  0.0000E+00
     -4.869  0.0000E+00  0.0000E+00  0.0000E+00
     -4.778  0.0000E+00  0.0000E+00  0.0000E+00
     -4.687  0.0000E+00  0.0000E+00  0.0000E+00
     -4.596  0.0000E+00  0.0000E+00  0.0000E+00
     -4.505  0.0000E+00  0.0000E+00  0.0000E+00
     -4.414  0.9689E-02  0.1504E-02  0.0000E+00
     -4.323  0.4973E+00  0.7717E-01  0.0000E+00
     -4.232  0.1459E-13  0.1938E-14  0.0000E+00
     -4.141  0.8037E+00  0.1049E+00  0.0000E+00
     -4.050  0.0000E+00  0.0000E+00  0.0000E+00
     -3.959  0.0000E+00  0.0000E+00  0.0000E+00
     -3.868  0.0000E+00  0.0000E+00  0.0000E+00
     -3.777  0.0000E+00  0.0000E+00  0.0000E+00
     -3.686  0.0000E+00  0.0000E+00  0.0000E+00
     -3.595  0.0000E+00  0.0000E+00  0.0000E+00
     -3.504  0.0000E+00  0.0000E+00  0.0000E+00
     -3.413  0.0000E+00  0.0000E+00  0.0000E+00
     -3.322  0.0000E+00  0.0000E+00  0.0000E+00
     -3.231  0.1831E-07  0.4366E-08  0.0000E+00
     -3.140  0.1201E+00  0.2861E-01  0.0000E+00
     -3.049  0.4709E+00  0.1032E+00  0.0000E+00
     -2.958  0.0000E+00  0.0000E+00  0.0000E+00
     -2.867  0.0000E+00  0.0000E+00  0.0000E+00
     -2.776  0.0000E+00  0.0000E+00  0.0000E+00
     -2.685  0.0000E+00  0.0000E+00  0.0000E+00
     -2.594  0.0000E+00  0.0000E+00  0.0000E+00
     -2.503  0.0000E+00  0.0000E+00  0.0000E+00
     -2.412  0.0000E+00  0.0000E+00  0.0000E+00
     -2.321  0.0000E+00  0.0000E+00  0.0000E+00
     -2.230  0.3631E-01  0.3502E-01  0.0000E+00
     -2.139  0.7042E-08  0.2896E-08  0.0000E+00
     -2.048  0.4093E+00  0.1683E+00  0.0000E+00
     -1.957  0.2171E+00  0.7949E-01  0.0000E+00
     -1.866  0.5011E-07  0.3652E-07  0.0000E+00
     -1.775  0.7471E+00  0.3693E+00  0.0000E+00
     -1.684  0.0000E+00  0.0000E+00  0.0000E+00
     -1.592  0.0000E+00  0.0000E+00  0.0000E+00
     -1.501  0.0000E+00  0.0000E+00  0.0000E+00
     -1.410  0.0000E+00  0.0000E+00  0.0000E+00
     -1.319  0.0000E+00  0.0000E+00  0.0000E+00
     -1.228  0.0000E+00  0.0000E+00  0.0000E+00
     -1.137  0.3085E+00  0.2255E+00  0.0000E+00
     -1.046  0.0000E+00  0.0000E+00  0.0000E+00
     -0.955  0.0000E+00  0.0000E+00  0.0000E+00