       N       E                     dE             d eps       ncg     rms          ort
DAV:   1     0.206947730262E+03    0.20695E+03   -0.19835E+04  4776   0.129E+03
DAV:   2     0.618480786874E+01   -0.20076E+03   -0.19395E+03  4776   0.376E+02
DAV:   3    -0.159765365765E+01   -0.77825E+01   -0.71050E+01  4776   0.523E+01
DAV:   4    -0.166467790441E+01   -0.67024E-01   -0.67028E-01  4776   0.622E+00
DAV:   5    -0.166495312749E+01   -0.27522E-03   -0.27535E-03  4776   0.380E-01
SDA:   6    -0.125083647283E+02   -0.10843E+02   -0.27535E-03  4776   0.334E-01 0.000E+00
CGA:   7    -0.125295923953E+02   -0.21228E-01   -0.20548E-01  4776   0.121E-01 0.188E-02
CGA:   8    -0.125356347534E+02   -0.60424E-02   -0.59771E-02  4776   0.285E-02 0.267E-03
CGA:   9    -0.125369444333E+02   -0.13097E-02   -0.13086E-02  4776   0.328E-03 0.440E-05
CGA:  10    -0.125370733482E+02   -0.12891E-03   -0.12954E-03  4776   0.494E-04-0.447E-05
CGA:  11    -0.125370931429E+02   -0.19795E-04   -0.19866E-04  4776   0.101E-04-0.503E-06
CGA:  12    -0.125370974782E+02   -0.43353E-05   -0.43841E-05  4776   0.218E-05-0.253E-06
CGA:  13    -0.125370985290E+02   -0.10508E-05   -0.11260E-05  4776   0.557E-06-0.285E-06
CGA:  14    -0.125370987219E+02   -0.19296E-06   -0.19351E-06  4776   0.701E-07-0.260E-08
   1 F= -.12537099E+02 E0= -.12537099E+02  d E =-.125371E+02
