 vasp.5.3.5 31Mar14 (build Apr 15 2015 10:45:18) complex                        
  
 executed on             LinuxIFC date 2016.02.15  14:56:49
 running on   64 total cores
 distrk:  each k-point on    4 cores,   16 groups
 distr:  one band on NCORES_PER_BAND=   1 cores,    4 groups


--------------------------------------------------------------------------------------------------------


 INCAR:
 POTCAR:    PAW_PBE Si 05Jan2001                  

 ----------------------------------------------------------------------------- 
|                                                                             |
|           W    W    AA    RRRRR   N    N  II  N    N   GGGG   !!!           |
|           W    W   A  A   R    R  NN   N  II  NN   N  G    G  !!!           |
|           W    W  A    A  R    R  N N  N  II  N N  N  G       !!!           |
|           W WW W  AAAAAA  RRRRR   N  N N  II  N  N N  G  GGG   !            |
|           WW  WW  A    A  R   R   N   NN  II  N   NN  G    G                |
|           W    W  A    A  R    R  N    N  II  N    N   GGGG   !!!           |
|                                                                             |
|      For optimal performance we recommend to set                            |
|        NCORE= 4 - approx SQRT( number of cores)                             |
|      NCORE specifies how many cores store one orbital (NPAR=cpu/NCORE).     |
|      This setting can  greatly improve the performance of VASP for DFT.     |
|      The default, NPAR=number of cores might be grossly inefficient         |
|      on modern multi-core architectures or massively parallel machines.     |
|      Do your own testing !!!!                                               |
|      Unfortunately you need to use the default for GW and RPA calculations. |
|      (for HF NCORE is supported but not extensively tested yet)             |
|                                                                             |
 ----------------------------------------------------------------------------- 


 ----------------------------------------------------------------------------- 
|                                                                             |
|           W    W    AA    RRRRR   N    N  II  N    N   GGGG   !!!           |
|           W    W   A  A   R    R  NN   N  II  NN   N  G    G  !!!           |
|           W    W  A    A  R    R  N N  N  II  N N  N  G       !!!           |
|           W WW W  AAAAAA  RRRRR   N  N N  II  N  N N  G  GGG   !            |
|           WW  WW  A    A  R   R   N   NN  II  N   NN  G    G                |
|           W    W  A    A  R    R  N    N  II  N    N   GGGG   !!!           |
|                                                                             |
|      You have enabled k-point parallelism (KPAR>1).                         |
|      This developmental code was originally  written by Paul Kent at ORNL,  |
|      and carefully double checked in Vienna.                                |
|      GW as well as linear response parallelism added by Martijn Marsman     |
|      and Georg Kresse.                                                      |
|      Carefully verify results versus KPAR=1.                                |
|      Report problems to Paul Kent and Vienna.                               |
|                                                                             |
 ----------------------------------------------------------------------------- 


 ----------------------------------------------------------------------------- 
|                                                                             |
|           W    W    AA    RRRRR   N    N  II  N    N   GGGG   !!!           |
|           W    W   A  A   R    R  NN   N  II  NN   N  G    G  !!!           |
|           W    W  A    A  R    R  N N  N  II  N N  N  G       !!!           |
|           W WW W  AAAAAA  RRRRR   N  N N  II  N  N N  G  GGG   !            |
|           WW  WW  A    A  R   R   N   NN  II  N   NN  G    G                |
|           W    W  A    A  R    R  N    N  II  N    N   GGGG   !!!           |
|                                                                             |
|      You have selected ISYM=2 for HF type calculation. This will symmetrize |
|      the charge density but not the exchange potential.                     |
|      I suggest to use ISYM=3 instead. This uses symmetry to obtain          |
|      the orbitals at all k-points in the Brillouine zone, but does not      |
|      apply symmetry to the Hartree potential directly.                      |
|      The resultant charge might have lower symmetry than the crystal,       |
|      but at least, Hartree and exchange are fully compatible.               |
|                                                                             |
 ----------------------------------------------------------------------------- 

 POTCAR:    PAW_PBE Si 05Jan2001                  
   VRHFIN =Si: s2p2                                                             
   LEXCH  = PE                                                                  
   EATOM  =   103.0669 eV,    7.5752 Ry                                         
                                                                                
   TITEL  = PAW_PBE Si 05Jan2001                                                
   LULTRA =        F    use ultrasoft PP ?                                      
   IUNSCR =        1    unscreen: 0-lin 1-nonlin 2-no                           
   RPACOR =    1.500    partial core radius                                     
   POMASS =   28.085; ZVAL   =    4.000    mass and valenz                      
   RCORE  =    1.900    outmost cutoff radius                                   
   RWIGS  =    2.480; RWIGS  =    1.312    wigner-seitz radius (au A)           
   ENMAX  =  245.345; ENMIN  =  184.009 eV                                      
   ICORE  =        2    local potential                                         
   LCOR   =        T    correct aug charges                                     
   LPAW   =        T    paw PP                                                  
   EAUG   =  322.069                                                            
   DEXC   =    0.000                                                            
   RMAX   =    1.950    core radius for proj-oper                               
   RAUG   =    1.300    factor for augmentation sphere                          
   RDEP   =    1.993    radius for radial grids                                 
   RDEPT  =    1.837    core radius for aug-charge                              
                                                                                
   Atomic configuration                                                         
    6 entries                                                                   
     n  l   j            E        occ.                                          
     1  0  0.50     -1785.8828   2.0000                                         
     2  0  0.50      -139.4969   2.0000                                         
     2  1  1.50       -95.5546   6.0000                                         
     3  0  0.50       -10.8127   2.0000                                         
     3  1  0.50        -4.0811   2.0000                                         
     3  2  1.50        -4.0817   0.0000                                         
   Description                                                                  
     l       E           TYP  RCUT    TYP  RCUT                                 
     0    -10.8127223     23  1.900                                             
     0     -7.6451159     23  1.900                                             
     1     -4.0811372     23  1.900                                             
     1      2.4879257     23  1.900                                             
     2     -4.0817478      7  1.900                                             
  local pseudopotential read in
  partial core-charges read in
  partial kinetic energy density read in
  atomic valenz-charges read in
  non local Contribution for L=           0  read in
    real space projection operators read in
  non local Contribution for L=           0  read in
    real space projection operators read in
  non local Contribution for L=           1  read in
    real space projection operators read in
  non local Contribution for L=           1  read in
    real space projection operators read in
    PAW grid and wavefunctions read in
 
   number of l-projection  operators is LMAX  =           4
   number of lm-projection operators is LMMAX =           8
 
  PAW_PBE Si 05Jan2001                  :
 energy of atom  1       EATOM= -103.0669
 kinetic energy error for atom=    0.0006 (will be added to EATOM!!)
 
 
 POSCAR: Si (Madelung Handbook, 295.7K)          
  positions in direct lattice
  velocities in cartesian coordinates
 exchange correlation table for  LEXCH =        8
   RHO(1)=    0.500       N(1)  =     2000
   RHO(2)=  100.500       N(2)  =     4000
 


--------------------------------------------------------------------------------------------------------


 ion  position               nearest neighbor table
   1  0.000  0.000  0.000-   2 2.35   2 2.35   2 2.35   2 2.35
   2  0.250  0.250  0.250-   1 2.35   1 2.35   1 2.35   1 2.35
 
  LATTYP: Found a face centered cubic cell.
 ALAT       =     5.4310000000
  
  Lattice vectors:
  
 A1 = (   2.7155000000,   2.7155000000,   0.0000000000)
 A2 = (   2.7155000000,   0.0000000000,  -2.7155000000)
 A3 = (   0.0000000000,   2.7155000000,  -2.7155000000)


Analysis of symmetry for initial positions (statically):
=====================================================================
 Subroutine PRICEL returns:
 Original cell was already a primitive cell.
 

 Routine SETGRP: Setting up the symmetry group for a 
 face centered cubic supercell.


 Subroutine GETGRP returns: Found 48 space group operations
 (whereof 24 operations were pure point group operations)
 out of a pool of 48 trial point group operations.


The static configuration has the point symmetry T_d .
 The point group associated with its full space group is O_h .


Analysis of symmetry for dynamics (positions and initial velocities):
=====================================================================
 Subroutine PRICEL returns:
 Original cell was already a primitive cell.
 

 Routine SETGRP: Setting up the symmetry group for a 
 face centered cubic supercell.


 Subroutine GETGRP returns: Found 48 space group operations
 (whereof 24 operations were pure point group operations)
 out of a pool of 48 trial point group operations.


The dynamic configuration has the point symmetry T_d .
 The point group associated with its full space group is O_h .
 
 
 KPOINTS: Automatically generated mesh            
  k-points in reciprocal lattice
Space group operators:
 irot       det(A)        alpha          n_x          n_y          n_z        tau_x        tau_y        tau_z
    1     1.000000     0.000001     1.000000     0.000000     0.000000     0.000000     0.000000     0.000000
    2     1.000000   120.000000    -0.577350    -0.577350     0.577350     0.000000     0.000000     0.000000
    3     1.000000   120.000000     0.577350     0.577350    -0.577350     0.000000     0.000000     0.000000
    4    -1.000000    90.000000    -1.000000     0.000000     0.000000     0.000000     0.000000     0.000000
    5    -1.000000   180.000000     0.707107     0.707107     0.000000     0.000000     0.000000     0.000000
    6    -1.000000    90.000000     0.000000     1.000000     0.000000     0.000000     0.000000     0.000000
    7     1.000000   180.000000     1.000000     0.000000     0.000000     0.000000     0.000000     0.000000
    8     1.000000   120.000000     0.577350     0.577350     0.577350     0.000000     0.000000     0.000000
    9     1.000000   120.000000    -0.577350     0.577350     0.577350     0.000000     0.000000     0.000000
   10    -1.000000    90.000000     1.000000     0.000000     0.000000     0.000000     0.000000     0.000000
   11    -1.000000    90.000000     0.000000     0.000000     1.000000     0.000000     0.000000     0.000000
   12    -1.000000   180.000000     0.707107     0.000000    -0.707107     0.000000     0.000000     0.000000
   13     1.000000   120.000000     0.577350    -0.577350    -0.577350     0.000000     0.000000     0.000000
   14     1.000000   120.000000     0.577350    -0.577350     0.577350     0.000000     0.000000     0.000000
   15     1.000000   180.000000     0.000000     0.000000     1.000000     0.000000     0.000000     0.000000
   16    -1.000000    90.000000     0.000000    -1.000000     0.000000     0.000000     0.000000     0.000000
   17    -1.000000   180.000000     0.000000    -0.707107     0.707107     0.000000     0.000000     0.000000
   18    -1.000000    90.000000     0.000000     0.000000    -1.000000     0.000000     0.000000     0.000000
   19     1.000000   120.000000    -0.577350    -0.577350    -0.577350     0.000000     0.000000     0.000000
   20     1.000000   180.000000     0.000000     1.000000     0.000000     0.000000     0.000000     0.000000
   21     1.000000   120.000000    -0.577350     0.577350    -0.577350     0.000000     0.000000     0.000000
   22    -1.000000   180.000000     0.707107    -0.707107     0.000000     0.000000     0.000000     0.000000
   23    -1.000000   180.000000     0.000000     0.707107     0.707107     0.000000     0.000000     0.000000
   24    -1.000000   180.000000     0.707107     0.000000     0.707107     0.000000     0.000000     0.000000
   25    -1.000000     0.000001     1.000000     0.000000     0.000000     0.250000     0.250000     0.250000
   26    -1.000000   120.000000    -0.577350    -0.577350     0.577350     0.250000     0.250000     0.250000
   27    -1.000000   120.000000     0.577350     0.577350    -0.577350     0.250000     0.250000     0.250000
   28     1.000000    90.000000    -1.000000     0.000000     0.000000     0.250000     0.250000     0.250000
   29     1.000000   180.000000     0.707107     0.707107     0.000000     0.250000     0.250000     0.250000
   30     1.000000    90.000000     0.000000     1.000000     0.000000     0.250000     0.250000     0.250000
   31    -1.000000   180.000000     1.000000     0.000000     0.000000     0.250000     0.250000     0.250000
   32    -1.000000   120.000000     0.577350     0.577350     0.577350     0.250000     0.250000     0.250000
   33    -1.000000   120.000000    -0.577350     0.577350     0.577350     0.250000     0.250000     0.250000
   34     1.000000    90.000000     1.000000     0.000000     0.000000     0.250000     0.250000     0.250000
   35     1.000000    90.000000     0.000000     0.000000     1.000000     0.250000     0.250000     0.250000
   36     1.000000   180.000000     0.707107     0.000000    -0.707107     0.250000     0.250000     0.250000
   37    -1.000000   120.000000     0.577350    -0.577350    -0.577350     0.250000     0.250000     0.250000
   38    -1.000000   120.000000     0.577350    -0.577350     0.577350     0.250000     0.250000     0.250000
   39    -1.000000   180.000000     0.000000     0.000000     1.000000     0.250000     0.250000     0.250000
   40     1.000000    90.000000     0.000000    -1.000000     0.000000     0.250000     0.250000     0.250000
   41     1.000000   180.000000     0.000000    -0.707107     0.707107     0.250000     0.250000     0.250000
   42     1.000000    90.000000     0.000000     0.000000    -1.000000     0.250000     0.250000     0.250000
   43    -1.000000   120.000000    -0.577350    -0.577350    -0.577350     0.250000     0.250000     0.250000
   44    -1.000000   180.000000     0.000000     1.000000     0.000000     0.250000     0.250000     0.250000
   45    -1.000000   120.000000    -0.577350     0.577350    -0.577350     0.250000     0.250000     0.250000
   46     1.000000   180.000000     0.707107    -0.707107     0.000000     0.250000     0.250000     0.250000
   47     1.000000   180.000000     0.000000     0.707107     0.707107     0.250000     0.250000     0.250000
   48     1.000000   180.000000     0.707107     0.000000     0.707107     0.250000     0.250000     0.250000

 ----------------------------------------------------------------------------- 
|                                                                             |
|           W    W    AA    RRRRR   N    N  II  N    N   GGGG   !!!           |
|           W    W   A  A   R    R  NN   N  II  NN   N  G    G  !!!           |
|           W    W  A    A  R    R  N N  N  II  N N  N  G       !!!           |
|           W WW W  AAAAAA  RRRRR   N  N N  II  N  N N  G  GGG   !            |
|           WW  WW  A    A  R   R   N   NN  II  N   NN  G    G                |
|           W    W  A    A  R    R  N    N  II  N    N   GGGG   !!!           |
|                                                                             |
|      Your generating k-point grid is not commensurate to the symmetry       |
|      of the lattice.  This can cause   slow convergence with respect        |
|      to k-points for HF type calculations                                   |
|      suggested SOLUTIONS:                                                   |
|       ) if not already the case, use automatic k-point generation           |
|       ) shift your grid to Gamma (G) (e.g. required for hex or fcc lattice) |
|                                                                             |
 ----------------------------------------------------------------------------- 

 
 Subroutine IBZKPT_HF returns following result:
 ==============================================
 
 Found    797 k-points in 1st BZ
 the following    797 k-points will be used (e.g. in the exchange kernel)
 Following reciprocal coordinates:   # in IRBZ
  0.000000  0.000000  0.000000       1 t-inv F
  0.166667  0.000000  0.000000       2 t-inv F
  0.333333  0.000000  0.000000       3 t-inv F
  0.500000  0.000000  0.000000       4 t-inv F
  0.166667  0.166667  0.000000       5 t-inv F
  0.333333  0.166667  0.000000       6 t-inv F
  0.500000  0.166667  0.000000       7 t-inv F
 -0.333333  0.166667  0.000000       8 t-inv F
 -0.166667  0.166667  0.000000       9 t-inv F
  0.333333  0.333333  0.000000      10 t-inv F
  0.500000  0.333333  0.000000      11 t-inv F
 -0.333333  0.333333  0.000000      12 t-inv F
  0.500000  0.500000  0.000000      13 t-inv F
  0.500000  0.333333  0.166667      14 t-inv F
 -0.333333  0.333333  0.166667      15 t-inv F
 -0.333333  0.500000  0.166667      16 t-inv F
  0.000000  0.000000  0.000000      17 t-inv F
  0.005000  0.000000  0.005000      18 t-inv F
  0.010000  0.000000  0.010000      19 t-inv F
  0.015000  0.000000  0.015000      20 t-inv F
  0.020000  0.000000  0.020000      21 t-inv F
  0.025000  0.000000  0.025000      22 t-inv F
  0.030000  0.000000  0.030000      23 t-inv F
  0.035000  0.000000  0.035000      24 t-inv F
  0.040000  0.000000  0.040000      25 t-inv F
  0.045000  0.000000  0.045000      26 t-inv F
  0.050000  0.000000  0.050000      27 t-inv F
  0.055000  0.000000  0.055000      28 t-inv F
  0.060000  0.000000  0.060000      29 t-inv F
  0.065000  0.000000  0.065000      30 t-inv F
  0.070000  0.000000  0.070000      31 t-inv F
  0.075000  0.000000  0.075000      32 t-inv F
  0.080000  0.000000  0.080000      33 t-inv F
  0.085000  0.000000  0.085000      34 t-inv F
  0.090000  0.000000  0.090000      35 t-inv F
  0.095000  0.000000  0.095000      36 t-inv F
  0.100000  0.000000  0.100000      37 t-inv F
  0.105000  0.000000  0.105000      38 t-inv F
  0.110000  0.000000  0.110000      39 t-inv F
  0.115000  0.000000  0.115000      40 t-inv F
  0.120000  0.000000  0.120000      41 t-inv F
  0.125000  0.000000  0.125000      42 t-inv F
  0.130000  0.000000  0.130000      43 t-inv F
  0.135000  0.000000  0.135000      44 t-inv F
  0.140000  0.000000  0.140000      45 t-inv F
  0.145000  0.000000  0.145000      46 t-inv F
  0.150000  0.000000  0.150000      47 t-inv F
  0.155000  0.000000  0.155000      48 t-inv F
  0.160000  0.000000  0.160000      49 t-inv F
  0.165000  0.000000  0.165000      50 t-inv F
  0.170000  0.000000  0.170000      51 t-inv F
  0.175000  0.000000  0.175000      52 t-inv F
  0.180000  0.000000  0.180000      53 t-inv F
  0.185000  0.000000  0.185000      54 t-inv F
  0.190000  0.000000  0.190000      55 t-inv F
  0.195000  0.000000  0.195000      56 t-inv F
  0.200000  0.000000  0.200000      57 t-inv F
  0.205000  0.000000  0.205000      58 t-inv F
  0.210000  0.000000  0.210000      59 t-inv F
  0.215000  0.000000  0.215000      60 t-inv F
  0.220000  0.000000  0.220000      61 t-inv F
  0.225000  0.000000  0.225000      62 t-inv F
  0.230000  0.000000  0.230000      63 t-inv F
  0.235000  0.000000  0.235000      64 t-inv F
  0.240000  0.000000  0.240000      65 t-inv F
  0.245000  0.000000  0.245000      66 t-inv F
  0.250000  0.000000  0.250000      67 t-inv F
  0.255000  0.000000  0.255000      68 t-inv F
  0.260000  0.000000  0.260000      69 t-inv F
  0.265000  0.000000  0.265000      70 t-inv F
  0.270000  0.000000  0.270000      71 t-inv F
  0.275000  0.000000  0.275000      72 t-inv F
  0.280000  0.000000  0.280000      73 t-inv F
  0.285000  0.000000  0.285000      74 t-inv F
  0.290000  0.000000  0.290000      75 t-inv F
  0.295000  0.000000  0.295000      76 t-inv F
  0.300000  0.000000  0.300000      77 t-inv F
  0.305000  0.000000  0.305000      78 t-inv F
  0.310000  0.000000  0.310000      79 t-inv F
  0.315000  0.000000  0.315000      80 t-inv F
  0.320000  0.000000  0.320000      81 t-inv F
  0.325000  0.000000  0.325000      82 t-inv F
  0.330000  0.000000  0.330000      83 t-inv F
  0.335000  0.000000  0.335000      84 t-inv F
  0.340000  0.000000  0.340000      85 t-inv F
  0.345000  0.000000  0.345000      86 t-inv F
  0.350000  0.000000  0.350000      87 t-inv F
  0.355000  0.000000  0.355000      88 t-inv F
  0.360000  0.000000  0.360000      89 t-inv F
  0.365000  0.000000  0.365000      90 t-inv F
  0.370000  0.000000  0.370000      91 t-inv F
  0.375000  0.000000  0.375000      92 t-inv F
  0.380000  0.000000  0.380000      93 t-inv F
  0.385000  0.000000  0.385000      94 t-inv F
  0.390000  0.000000  0.390000      95 t-inv F
  0.395000  0.000000  0.395000      96 t-inv F
  0.400000  0.000000  0.400000      97 t-inv F
  0.405000  0.000000  0.405000      98 t-inv F
  0.410000  0.000000  0.410000      99 t-inv F
  0.415000  0.000000  0.415000     100 t-inv F
  0.420000  0.000000  0.420000     101 t-inv F
  0.425000  0.000000  0.425000     102 t-inv F
  0.430000  0.000000  0.430000     103 t-inv F
  0.435000  0.000000  0.435000     104 t-inv F
  0.440000  0.000000  0.440000     105 t-inv F
  0.445000  0.000000  0.445000     106 t-inv F
  0.450000  0.000000  0.450000     107 t-inv F
  0.455000  0.000000  0.455000     108 t-inv F
  0.460000  0.000000  0.460000     109 t-inv F
  0.465000  0.000000  0.465000     110 t-inv F
  0.470000  0.000000  0.470000     111 t-inv F
  0.475000  0.000000  0.475000     112 t-inv F
  0.480000  0.000000  0.480000     113 t-inv F
  0.485000  0.000000  0.485000     114 t-inv F
  0.490000  0.000000  0.490000     115 t-inv F
  0.495000  0.000000  0.495000     116 t-inv F
  0.500000  0.000000  0.500000     117 t-inv F
  0.500000  0.006410  0.503205     118 t-inv F
  0.500000  0.012821  0.506410     119 t-inv F
  0.500000  0.019231  0.509615     120 t-inv F
  0.500000  0.025641  0.512821     121 t-inv F
  0.500000  0.032051  0.516026     122 t-inv F
  0.500000  0.038462  0.519231     123 t-inv F
  0.500000  0.044872  0.522436     124 t-inv F
  0.500000  0.051282  0.525641     125 t-inv F
  0.500000  0.057692  0.528846     126 t-inv F
  0.500000  0.064103  0.532051     127 t-inv F
  0.500000  0.070513  0.535256     128 t-inv F
  0.500000  0.076923  0.538462     129 t-inv F
  0.500000  0.083333  0.541667     130 t-inv F
  0.500000  0.089744  0.544872     131 t-inv F
  0.500000  0.096154  0.548077     132 t-inv F
  0.500000  0.102564  0.551282     133 t-inv F
  0.500000  0.108974  0.554487     134 t-inv F
  0.500000  0.115385  0.557692     135 t-inv F
  0.500000  0.121795  0.560897     136 t-inv F
  0.500000  0.128205  0.564103     137 t-inv F
  0.500000  0.134615  0.567308     138 t-inv F
  0.500000  0.141026  0.570513     139 t-inv F
  0.500000  0.147436  0.573718     140 t-inv F
  0.500000  0.153846  0.576923     141 t-inv F
  0.500000  0.160256  0.580128     142 t-inv F
  0.500000  0.166667  0.583333     143 t-inv F
  0.500000  0.173077  0.586538     144 t-inv F
  0.500000  0.179487  0.589744     145 t-inv F
  0.500000  0.185897  0.592949     146 t-inv F
  0.500000  0.192308  0.596154     147 t-inv F
  0.500000  0.198718  0.599359     148 t-inv F
  0.500000  0.205128  0.602564     149 t-inv F
  0.500000  0.211538  0.605769     150 t-inv F
  0.500000  0.217949  0.608974     151 t-inv F
  0.500000  0.224359  0.612180     152 t-inv F
  0.500000  0.230769  0.615385     153 t-inv F
  0.500000  0.237179  0.618590     154 t-inv F
  0.500000  0.243590  0.621795     155 t-inv F
  0.500000  0.250000  0.625000     156 t-inv F
  0.495833  0.254167  0.629167     157 t-inv F
  0.491667  0.258333  0.633333     158 t-inv F
  0.487500  0.262500  0.637500     159 t-inv F
  0.483333  0.266667  0.641667     160 t-inv F
  0.479167  0.270833  0.645833     161 t-inv F
  0.475000  0.275000  0.650000     162 t-inv F
  0.470833  0.279167  0.654167     163 t-inv F
  0.466667  0.283333  0.658333     164 t-inv F
  0.462500  0.287500  0.662500     165 t-inv F
  0.458333  0.291667  0.666667     166 t-inv F
  0.454167  0.295833  0.670833     167 t-inv F
  0.450000  0.300000  0.675000     168 t-inv F
  0.445833  0.304167  0.679167     169 t-inv F
  0.441667  0.308333  0.683333     170 t-inv F
  0.437500  0.312500  0.687500     171 t-inv F
  0.433333  0.316667  0.691667     172 t-inv F
  0.429167  0.320833  0.695833     173 t-inv F
  0.425000  0.325000  0.700000     174 t-inv F
  0.420833  0.329167  0.704167     175 t-inv F
  0.416667  0.333333  0.708333     176 t-inv F
  0.412500  0.337500  0.712500     177 t-inv F
  0.408333  0.341667  0.716667     178 t-inv F
  0.404167  0.345833  0.720833     179 t-inv F
  0.400000  0.350000  0.725000     180 t-inv F
  0.395833  0.354167  0.729167     181 t-inv F
  0.391667  0.358333  0.733333     182 t-inv F
  0.387500  0.362500  0.737500     183 t-inv F
  0.383333  0.366667  0.741667     184 t-inv F
  0.379167  0.370833  0.745833     185 t-inv F
  0.375000  0.375000  0.750000     186 t-inv F
  0.372093  0.372093  0.744186     187 t-inv F
  0.369186  0.369186  0.738372     188 t-inv F
  0.366279  0.366279  0.732558     189 t-inv F
  0.363372  0.363372  0.726744     190 t-inv F
  0.360465  0.360465  0.720930     191 t-inv F
  0.357558  0.357558  0.715116     192 t-inv F
  0.354651  0.354651  0.709302     193 t-inv F
  0.351744  0.351744  0.703488     194 t-inv F
  0.348837  0.348837  0.697674     195 t-inv F
  0.345930  0.345930  0.691860     196 t-inv F
  0.343023  0.343023  0.686046     197 t-inv F
  0.340116  0.340116  0.680233     198 t-inv F
  0.337209  0.337209  0.674419     199 t-inv F
  0.334302  0.334302  0.668605     200 t-inv F
  0.331395  0.331395  0.662791     201 t-inv F
  0.328488  0.328488  0.656977     202 t-inv F
  0.325581  0.325581  0.651163     203 t-inv F
  0.322674  0.322674  0.645349     204 t-inv F
  0.319767  0.319767  0.639535     205 t-inv F
  0.316860  0.316860  0.633721     206 t-inv F
  0.313953  0.313953  0.627907     207 t-inv F
  0.311047  0.311047  0.622093     208 t-inv F
  0.308140  0.308140  0.616279     209 t-inv F
  0.305233  0.305233  0.610465     210 t-inv F
  0.302326  0.302326  0.604651     211 t-inv F
  0.299419  0.299419  0.598837     212 t-inv F
  0.296512  0.296512  0.593023     213 t-inv F
  0.293605  0.293605  0.587209     214 t-inv F
  0.290698  0.290698  0.581395     215 t-inv F
  0.287791  0.287791  0.575581     216 t-inv F
  0.284884  0.284884  0.569767     217 t-inv F
  0.281977  0.281977  0.563954     218 t-inv F
  0.279070  0.279070  0.558140     219 t-inv F
  0.276163  0.276163  0.552326     220 t-inv F
  0.273256  0.273256  0.546512     221 t-inv F
  0.270349  0.270349  0.540698     222 t-inv F
  0.267442  0.267442  0.534884     223 t-inv F
  0.264535  0.264535  0.529070     224 t-inv F
  0.261628  0.261628  0.523256     225 t-inv F
  0.258721  0.258721  0.517442     226 t-inv F
  0.255814  0.255814  0.511628     227 t-inv F
  0.252907  0.252907  0.505814     228 t-inv F
  0.250000  0.250000  0.500000     229 t-inv F
  0.247093  0.247093  0.494186     230 t-inv F
  0.244186  0.244186  0.488372     231 t-inv F
  0.241279  0.241279  0.482558     232 t-inv F
  0.238372  0.238372  0.476744     233 t-inv F
  0.235465  0.235465  0.470930     234 t-inv F
  0.232558  0.232558  0.465116     235 t-inv F
  0.229651  0.229651  0.459302     236 t-inv F
  0.226744  0.226744  0.453488     237 t-inv F
  0.223837  0.223837  0.447674     238 t-inv F
  0.220930  0.220930  0.441860     239 t-inv F
  0.218023  0.218023  0.436047     240 t-inv F
  0.215116  0.215116  0.430233     241 t-inv F
  0.212209  0.212209  0.424419     242 t-inv F
  0.209302  0.209302  0.418605     243 t-inv F
  0.206395  0.206395  0.412791     244 t-inv F
  0.203488  0.203488  0.406977     245 t-inv F
  0.200581  0.200581  0.401163     246 t-inv F
  0.197674  0.197674  0.395349     247 t-inv F
  0.194767  0.194767  0.389535     248 t-inv F
  0.191860  0.191860  0.383721     249 t-inv F
  0.188953  0.188953  0.377907     250 t-inv F
  0.186047  0.186047  0.372093     251 t-inv F
  0.183140  0.183140  0.366279     252 t-inv F
  0.180233  0.180233  0.360465     253 t-inv F
  0.177326  0.177326  0.354651     254 t-inv F
  0.174419  0.174419  0.348837     255 t-inv F
  0.171512  0.171512  0.343023     256 t-inv F
  0.168605  0.168605  0.337209     257 t-inv F
  0.165698  0.165698  0.331395     258 t-inv F
  0.162791  0.162791  0.325581     259 t-inv F
  0.159884  0.159884  0.319767     260 t-inv F
  0.156977  0.156977  0.313953     261 t-inv F
  0.154070  0.154070  0.308140     262 t-inv F
  0.151163  0.151163  0.302326     263 t-inv F
  0.148256  0.148256  0.296512     264 t-inv F
  0.145349  0.145349  0.290698     265 t-inv F
  0.142442  0.142442  0.284884     266 t-inv F
  0.139535  0.139535  0.279070     267 t-inv F
  0.136628  0.136628  0.273256     268 t-inv F
  0.133721  0.133721  0.267442     269 t-inv F
  0.130814  0.130814  0.261628     270 t-inv F
  0.127907  0.127907  0.255814     271 t-inv F
  0.125000  0.125000  0.250000     272 t-inv F
  0.122093  0.122093  0.244186     273 t-inv F
  0.119186  0.119186  0.238372     274 t-inv F
  0.116279  0.116279  0.232558     275 t-inv F
  0.113372  0.113372  0.226744     276 t-inv F
  0.110465  0.110465  0.220930     277 t-inv F
  0.107558  0.107558  0.215116     278 t-inv F
  0.104651  0.104651  0.209302     279 t-inv F
  0.101744  0.101744  0.203488     280 t-inv F
  0.098837  0.098837  0.197674     281 t-inv F
  0.095930  0.095930  0.191860     282 t-inv F
  0.093023  0.093023  0.186046     283 t-inv F
  0.090116  0.090116  0.180233     284 t-inv F
  0.087209  0.087209  0.174419     285 t-inv F
  0.084302  0.084302  0.168605     286 t-inv F
  0.081395  0.081395  0.162791     287 t-inv F
  0.078488  0.078488  0.156977     288 t-inv F
  0.075581  0.075581  0.151163     289 t-inv F
  0.072674  0.072674  0.145349     290 t-inv F
  0.069767  0.069767  0.139535     291 t-inv F
  0.066860  0.066860  0.133721     292 t-inv F
  0.063953  0.063953  0.127907     293 t-inv F
  0.061047  0.061047  0.122093     294 t-inv F
  0.058140  0.058140  0.116279     295 t-inv F
  0.055233  0.055233  0.110465     296 t-inv F
  0.052326  0.052326  0.104651     297 t-inv F
  0.049419  0.049419  0.098837     298 t-inv F
  0.046512  0.046512  0.093023     299 t-inv F
  0.043605  0.043605  0.087209     300 t-inv F
  0.040698  0.040698  0.081395     301 t-inv F
  0.037791  0.037791  0.075581     302 t-inv F
  0.034884  0.034884  0.069767     303 t-inv F
  0.031977  0.031977  0.063953     304 t-inv F
  0.029070  0.029070  0.058139     305 t-inv F
  0.026163  0.026163  0.052326     306 t-inv F
  0.023256  0.023256  0.046512     307 t-inv F
  0.020349  0.020349  0.040698     308 t-inv F
  0.017442  0.017442  0.034884     309 t-inv F
  0.014535  0.014535  0.029070     310 t-inv F
  0.011628  0.011628  0.023256     311 t-inv F
  0.008721  0.008721  0.017442     312 t-inv F
  0.005814  0.005814  0.011628     313 t-inv F
  0.002907  0.002907  0.005814     314 t-inv F
  0.000000  0.000000  0.000000     315 t-inv F
  0.004098  0.004098  0.004098     316 t-inv F
  0.008197  0.008197  0.008197     317 t-inv F
  0.012295  0.012295  0.012295     318 t-inv F
  0.016393  0.016393  0.016393     319 t-inv F
  0.020492  0.020492  0.020492     320 t-inv F
  0.024590  0.024590  0.024590     321 t-inv F
  0.028689  0.028689  0.028689     322 t-inv F
  0.032787  0.032787  0.032787     323 t-inv F
  0.036885  0.036885  0.036885     324 t-inv F
  0.040984  0.040984  0.040984     325 t-inv F
  0.045082  0.045082  0.045082     326 t-inv F
  0.049180  0.049180  0.049180     327 t-inv F
  0.053279  0.053279  0.053279     328 t-inv F
  0.057377  0.057377  0.057377     329 t-inv F
  0.061475  0.061475  0.061475     330 t-inv F
  0.065574  0.065574  0.065574     331 t-inv F
  0.069672  0.069672  0.069672     332 t-inv F
  0.073770  0.073770  0.073770     333 t-inv F
  0.077869  0.077869  0.077869     334 t-inv F
  0.081967  0.081967  0.081967     335 t-inv F
  0.086066  0.086066  0.086066     336 t-inv F
  0.090164  0.090164  0.090164     337 t-inv F
  0.094262  0.094262  0.094262     338 t-inv F
  0.098361  0.098361  0.098361     339 t-inv F
  0.102459  0.102459  0.102459     340 t-inv F
  0.106557  0.106557  0.106557     341 t-inv F
  0.110656  0.110656  0.110656     342 t-inv F
  0.114754  0.114754  0.114754     343 t-inv F
  0.118852  0.118852  0.118852     344 t-inv F
  0.122951  0.122951  0.122951     345 t-inv F
  0.127049  0.127049  0.127049     346 t-inv F
  0.131148  0.131148  0.131148     347 t-inv F
  0.135246  0.135246  0.135246     348 t-inv F
  0.139344  0.139344  0.139344     349 t-inv F
  0.143443  0.143443  0.143443     350 t-inv F
  0.147541  0.147541  0.147541     351 t-inv F
  0.151639  0.151639  0.151639     352 t-inv F
  0.155738  0.155738  0.155738     353 t-inv F
  0.159836  0.159836  0.159836     354 t-inv F
  0.163934  0.163934  0.163934     355 t-inv F
  0.168033  0.168033  0.168033     356 t-inv F
  0.172131  0.172131  0.172131     357 t-inv F
  0.176230  0.176230  0.176230     358 t-inv F
  0.180328  0.180328  0.180328     359 t-inv F
  0.184426  0.184426  0.184426     360 t-inv F
  0.188525  0.188525  0.188525     361 t-inv F
  0.192623  0.192623  0.192623     362 t-inv F
  0.196721  0.196721  0.196721     363 t-inv F
  0.200820  0.200820  0.200820     364 t-inv F
  0.204918  0.204918  0.204918     365 t-inv F
  0.209016  0.209016  0.209016     366 t-inv F
  0.213115  0.213115  0.213115     367 t-inv F
  0.217213  0.217213  0.217213     368 t-inv F
  0.221311  0.221311  0.221311     369 t-inv F
  0.225410  0.225410  0.225410     370 t-inv F
  0.229508  0.229508  0.229508     371 t-inv F
  0.233607  0.233607  0.233607     372 t-inv F
  0.237705  0.237705  0.237705     373 t-inv F
  0.241803  0.241803  0.241803     374 t-inv F
  0.245902  0.245902  0.245902     375 t-inv F
  0.250000  0.250000  0.250000     376 t-inv F
  0.254098  0.254098  0.254098     377 t-inv F
  0.258197  0.258197  0.258197     378 t-inv F
  0.262295  0.262295  0.262295     379 t-inv F
  0.266393  0.266393  0.266393     380 t-inv F
  0.270492  0.270492  0.270492     381 t-inv F
  0.274590  0.274590  0.274590     382 t-inv F
  0.278689  0.278689  0.278689     383 t-inv F
  0.282787  0.282787  0.282787     384 t-inv F
  0.286885  0.286885  0.286885     385 t-inv F
  0.290984  0.290984  0.290984     386 t-inv F
  0.295082  0.295082  0.295082     387 t-inv F
  0.299180  0.299180  0.299180     388 t-inv F
  0.303279  0.303279  0.303279     389 t-inv F
  0.307377  0.307377  0.307377     390 t-inv F
  0.311475  0.311475  0.311475     391 t-inv F
  0.315574  0.315574  0.315574     392 t-inv F
  0.319672  0.319672  0.319672     393 t-inv F
  0.323770  0.323770  0.323770     394 t-inv F
  0.327869  0.327869  0.327869     395 t-inv F
  0.331967  0.331967  0.331967     396 t-inv F
  0.336066  0.336066  0.336066     397 t-inv F
  0.340164  0.340164  0.340164     398 t-inv F
  0.344262  0.344262  0.344262     399 t-inv F
  0.348361  0.348361  0.348361     400 t-inv F
  0.352459  0.352459  0.352459     401 t-inv F
  0.356557  0.356557  0.356557     402 t-inv F
  0.360656  0.360656  0.360656     403 t-inv F
  0.364754  0.364754  0.364754     404 t-inv F
  0.368852  0.368852  0.368852     405 t-inv F
  0.372951  0.372951  0.372951     406 t-inv F
  0.377049  0.377049  0.377049     407 t-inv F
  0.381148  0.381148  0.381148     408 t-inv F
  0.385246  0.385246  0.385246     409 t-inv F
  0.389344  0.389344  0.389344     410 t-inv F
  0.393443  0.393443  0.393443     411 t-inv F
  0.397541  0.397541  0.397541     412 t-inv F
  0.401639  0.401639  0.401639     413 t-inv F
  0.405738  0.405738  0.405738     414 t-inv F
  0.409836  0.409836  0.409836     415 t-inv F
  0.413934  0.413934  0.413934     416 t-inv F
  0.418033  0.418033  0.418033     417 t-inv F
  0.422131  0.422131  0.422131     418 t-inv F
  0.426230  0.426230  0.426230     419 t-inv F
  0.430328  0.430328  0.430328     420 t-inv F
  0.434426  0.434426  0.434426     421 t-inv F
  0.438525  0.438525  0.438525     422 t-inv F
  0.442623  0.442623  0.442623     423 t-inv F
  0.446721  0.446721  0.446721     424 t-inv F
  0.450820  0.450820  0.450820     425 t-inv F
  0.454918  0.454918  0.454918     426 t-inv F
  0.459016  0.459016  0.459016     427 t-inv F
  0.463115  0.463115  0.463115     428 t-inv F
  0.467213  0.467213  0.467213     429 t-inv F
  0.471311  0.471311  0.471311     430 t-inv F
  0.475410  0.475410  0.475410     431 t-inv F
  0.479508  0.479508  0.479508     432 t-inv F
  0.483607  0.483607  0.483607     433 t-inv F
  0.487705  0.487705  0.487705     434 t-inv F
  0.491803  0.491803  0.491803     435 t-inv F
  0.495902  0.495902  0.495902     436 t-inv F
  0.500000  0.500000  0.500000     437 t-inv F
  0.502907  0.494186  0.502907     438 t-inv F
  0.505814  0.488372  0.505814     439 t-inv F
  0.508721  0.482558  0.508721     440 t-inv F
  0.511628  0.476744  0.511628     441 t-inv F
  0.514535  0.470930  0.514535     442 t-inv F
  0.517442  0.465116  0.517442     443 t-inv F
  0.520349  0.459302  0.520349     444 t-inv F
  0.523256  0.453488  0.523256     445 t-inv F
  0.526163  0.447674  0.526163     446 t-inv F
  0.529070  0.441860  0.529070     447 t-inv F
  0.531977  0.436047  0.531977     448 t-inv F
  0.534884  0.430233  0.534884     449 t-inv F
  0.537791  0.424419  0.537791     450 t-inv F
  0.540698  0.418605  0.540698     451 t-inv F
  0.543605  0.412791  0.543605     452 t-inv F
  0.546512  0.406977  0.546512     453 t-inv F
  0.549419  0.401163  0.549419     454 t-inv F
  0.552326  0.395349  0.552326     455 t-inv F
  0.555233  0.389535  0.555233     456 t-inv F
  0.558140  0.383721  0.558140     457 t-inv F
  0.561046  0.377907  0.561046     458 t-inv F
  0.563954  0.372093  0.563954     459 t-inv F
  0.566860  0.366279  0.566860     460 t-inv F
  0.569767  0.360465  0.569767     461 t-inv F
  0.572674  0.354651  0.572674     462 t-inv F
  0.575581  0.348837  0.575581     463 t-inv F
  0.578488  0.343023  0.578488     464 t-inv F
  0.581395  0.337209  0.581395     465 t-inv F
  0.584302  0.331395  0.584302     466 t-inv F
  0.587209  0.325581  0.587209     467 t-inv F
  0.590116  0.319767  0.590116     468 t-inv F
  0.593023  0.313953  0.593023     469 t-inv F
  0.595930  0.308140  0.595930     470 t-inv F
  0.598837  0.302326  0.598837     471 t-inv F
  0.601744  0.296512  0.601744     472 t-inv F
  0.604651  0.290698  0.604651     473 t-inv F
  0.607558  0.284884  0.607558     474 t-inv F
  0.610465  0.279070  0.610465     475 t-inv F
  0.613372  0.273256  0.613372     476 t-inv F
  0.616279  0.267442  0.616279     477 t-inv F
  0.619186  0.261628  0.619186     478 t-inv F
  0.622093  0.255814  0.622093     479 t-inv F
  0.625000  0.250000  0.625000     480 t-inv F
  0.620000  0.250000  0.630000     481 t-inv F
  0.615000  0.250000  0.635000     482 t-inv F
  0.610000  0.250000  0.640000     483 t-inv F
  0.605000  0.250000  0.645000     484 t-inv F
  0.600000  0.250000  0.650000     485 t-inv F
  0.595000  0.250000  0.655000     486 t-inv F
  0.590000  0.250000  0.660000     487 t-inv F
  0.585000  0.250000  0.665000     488 t-inv F
  0.580000  0.250000  0.670000     489 t-inv F
  0.575000  0.250000  0.675000     490 t-inv F
  0.570000  0.250000  0.680000     491 t-inv F
  0.565000  0.250000  0.685000     492 t-inv F
  0.560000  0.250000  0.690000     493 t-inv F
  0.555000  0.250000  0.695000     494 t-inv F
  0.550000  0.250000  0.700000     495 t-inv F
  0.545000  0.250000  0.705000     496 t-inv F
  0.540000  0.250000  0.710000     497 t-inv F
  0.535000  0.250000  0.715000     498 t-inv F
  0.530000  0.250000  0.720000     499 t-inv F
  0.525000  0.250000  0.725000     500 t-inv F
  0.520000  0.250000  0.730000     501 t-inv F
  0.515000  0.250000  0.735000     502 t-inv F
  0.510000  0.250000  0.740000     503 t-inv F
  0.505000  0.250000  0.745000     504 t-inv F
  0.500000  0.250000  0.750000     505 t-inv F
  0.500000  0.255000  0.745000     506 t-inv F
  0.500000  0.260000  0.740000     507 t-inv F
  0.500000  0.265000  0.735000     508 t-inv F
  0.500000  0.270000  0.730000     509 t-inv F
  0.500000  0.275000  0.725000     510 t-inv F
  0.500000  0.280000  0.720000     511 t-inv F
  0.500000  0.285000  0.715000     512 t-inv F
  0.500000  0.290000  0.710000     513 t-inv F
  0.500000  0.295000  0.705000     514 t-inv F
  0.500000  0.300000  0.700000     515 t-inv F
  0.500000  0.305000  0.695000     516 t-inv F
  0.500000  0.310000  0.690000     517 t-inv F
  0.500000  0.315000  0.685000     518 t-inv F
  0.500000  0.320000  0.680000     519 t-inv F
  0.500000  0.325000  0.675000     520 t-inv F
  0.500000  0.330000  0.670000     521 t-inv F
  0.500000  0.335000  0.665000     522 t-inv F
  0.500000  0.340000  0.660000     523 t-inv F
  0.500000  0.345000  0.655000     524 t-inv F
  0.500000  0.350000  0.650000     525 t-inv F
  0.500000  0.355000  0.645000     526 t-inv F
  0.500000  0.360000  0.640000     527 t-inv F
  0.500000  0.365000  0.635000     528 t-inv F
  0.500000  0.370000  0.630000     529 t-inv F
  0.500000  0.375000  0.625000     530 t-inv F
  0.500000  0.380000  0.620000     531 t-inv F
  0.500000  0.385000  0.615000     532 t-inv F
  0.500000  0.390000  0.610000     533 t-inv F
  0.500000  0.395000  0.605000     534 t-inv F
  0.500000  0.400000  0.600000     535 t-inv F
  0.500000  0.405000  0.595000     536 t-inv F
  0.500000  0.410000  0.590000     537 t-inv F
  0.500000  0.415000  0.585000     538 t-inv F
  0.500000  0.420000  0.580000     539 t-inv F
  0.500000  0.425000  0.575000     540 t-inv F
  0.500000  0.430000  0.570000     541 t-inv F
  0.500000  0.435000  0.565000     542 t-inv F
  0.500000  0.440000  0.560000     543 t-inv F
  0.500000  0.445000  0.555000     544 t-inv F
  0.500000  0.450000  0.550000     545 t-inv F
  0.500000  0.455000  0.545000     546 t-inv F
  0.500000  0.460000  0.540000     547 t-inv F
  0.500000  0.465000  0.535000     548 t-inv F
  0.500000  0.470000  0.530000     549 t-inv F
  0.500000  0.475000  0.525000     550 t-inv F
  0.500000  0.480000  0.520000     551 t-inv F
  0.500000  0.485000  0.515000     552 t-inv F
  0.500000  0.490000  0.510000     553 t-inv F
  0.500000  0.495000  0.505000     554 t-inv F
  0.500000  0.500000  0.500000     555 t-inv F
  0.497093  0.497093  0.505814     556 t-inv F
  0.494186  0.494186  0.511628     557 t-inv F
  0.491279  0.491279  0.517442     558 t-inv F
  0.488372  0.488372  0.523256     559 t-inv F
  0.485465  0.485465  0.529070     560 t-inv F
  0.482558  0.482558  0.534884     561 t-inv F
  0.479651  0.479651  0.540698     562 t-inv F
  0.476744  0.476744  0.546512     563 t-inv F
  0.473837  0.473837  0.552326     564 t-inv F
  0.470930  0.470930  0.558140     565 t-inv F
  0.468023  0.468023  0.563954     566 t-inv F
  0.465116  0.465116  0.569767     567 t-inv F
  0.462209  0.462209  0.575581     568 t-inv F
  0.459302  0.459302  0.581395     569 t-inv F
  0.456395  0.456395  0.587209     570 t-inv F
  0.453488  0.453488  0.593023     571 t-inv F
  0.450581  0.450581  0.598837     572 t-inv F
  0.447674  0.447674  0.604651     573 t-inv F
  0.444767  0.444767  0.610465     574 t-inv F
  0.441860  0.441860  0.616279     575 t-inv F
  0.438953  0.438953  0.622093     576 t-inv F
  0.436047  0.436047  0.627907     577 t-inv F
  0.433140  0.433140  0.633721     578 t-inv F
  0.430233  0.430233  0.639535     579 t-inv F
  0.427326  0.427326  0.645349     580 t-inv F
  0.424419  0.424419  0.651163     581 t-inv F
  0.421512  0.421512  0.656977     582 t-inv F
  0.418605  0.418605  0.662791     583 t-inv F
  0.415698  0.415698  0.668605     584 t-inv F
  0.412791  0.412791  0.674419     585 t-inv F
  0.409884  0.409884  0.680233     586 t-inv F
  0.406977  0.406977  0.686046     587 t-inv F
  0.404070  0.404070  0.691860     588 t-inv F
  0.401163  0.401163  0.697674     589 t-inv F
  0.398256  0.398256  0.703488     590 t-inv F
  0.395349  0.395349  0.709302     591 t-inv F
  0.392442  0.392442  0.715116     592 t-inv F
  0.389535  0.389535  0.720930     593 t-inv F
  0.386628  0.386628  0.726744     594 t-inv F
  0.383721  0.383721  0.732558     595 t-inv F
  0.380814  0.380814  0.738372     596 t-inv F
  0.377907  0.377907  0.744186     597 t-inv F
  0.000000  0.166667  0.000000       2 t-inv F
  0.000000  0.000000  0.166667       2 t-inv F
 -0.166667 -0.166667 -0.166667       2 t-inv F
 -0.166667  0.000000  0.000000       2 t-inv F
  0.000000 -0.166667  0.000000       2 t-inv F
  0.000000  0.000000 -0.166667       2 t-inv F
  0.166667  0.166667  0.166667       2 t-inv F
  0.000000  0.333333  0.000000       3 t-inv F
  0.000000  0.000000  0.333333       3 t-inv F
 -0.333333 -0.333333 -0.333333       3 t-inv F
 -0.333333  0.000000  0.000000       3 t-inv F
  0.000000 -0.333333  0.000000       3 t-inv F
  0.000000  0.000000 -0.333333       3 t-inv F
  0.333333  0.333333  0.333333       3 t-inv F
  0.000000  0.500000  0.000000       4 t-inv F
  0.000000  0.000000  0.500000       4 t-inv F
 -0.500000 -0.500000 -0.500000       4 t-inv F
  0.000000  0.166667  0.166667       5 t-inv F
  0.166667  0.000000  0.166667       5 t-inv F
 -0.166667 -0.166667  0.000000       5 t-inv F
 -0.166667  0.000000 -0.166667       5 t-inv F
  0.000000 -0.166667 -0.166667       5 t-inv F
  0.000000  0.333333  0.166667       6 t-inv F
  0.166667  0.000000  0.333333       6 t-inv F
 -0.166667 -0.166667  0.166667       6 t-inv F
 -0.333333 -0.166667 -0.333333       6 t-inv F
  0.166667  0.333333  0.000000       6 t-inv F
  0.166667 -0.166667 -0.166667       6 t-inv F
 -0.333333 -0.333333 -0.166667       6 t-inv F
  0.000000  0.166667  0.333333       6 t-inv F
 -0.166667  0.166667 -0.166667       6 t-inv F
 -0.166667 -0.333333 -0.333333       6 t-inv F
  0.333333  0.000000  0.166667       6 t-inv F
 -0.333333 -0.166667  0.000000       6 t-inv F
  0.000000 -0.333333 -0.166667       6 t-inv F
 -0.166667  0.000000 -0.333333       6 t-inv F
  0.166667  0.166667 -0.166667       6 t-inv F
  0.333333  0.166667  0.333333       6 t-inv F
 -0.166667 -0.333333  0.000000       6 t-inv F
 -0.166667  0.166667  0.166667       6 t-inv F
  0.333333  0.333333  0.166667       6 t-inv F
  0.000000 -0.166667 -0.333333       6 t-inv F
  0.166667 -0.166667  0.166667       6 t-inv F
  0.166667  0.333333  0.333333       6 t-inv F
 -0.333333  0.000000 -0.166667       6 t-inv F
  0.000000  0.500000  0.166667       7 t-inv F
  0.166667  0.000000  0.500000       7 t-inv F
 -0.166667 -0.166667  0.333333       7 t-inv F
 -0.500000 -0.333333 -0.500000       7 t-inv F
  0.166667  0.500000  0.000000       7 t-inv F
  0.333333 -0.166667 -0.166667       7 t-inv F
 -0.500000 -0.500000 -0.333333       7 t-inv F
  0.000000  0.166667  0.500000       7 t-inv F
 -0.166667  0.333333 -0.166667       7 t-inv F
 -0.333333 -0.500000 -0.500000       7 t-inv F
  0.500000  0.000000  0.166667       7 t-inv F
 -0.500000 -0.166667  0.000000       7 t-inv F
  0.000000 -0.500000 -0.166667       7 t-inv F
 -0.166667  0.000000 -0.500000       7 t-inv F
  0.166667  0.166667 -0.333333       7 t-inv F
  0.500000  0.333333  0.500000       7 t-inv F
 -0.166667 -0.500000  0.000000       7 t-inv F
 -0.333333  0.166667  0.166667       7 t-inv F
  0.500000  0.500000  0.333333       7 t-inv F
  0.000000 -0.166667 -0.500000       7 t-inv F
  0.166667 -0.333333  0.166667       7 t-inv F
  0.333333  0.500000  0.500000       7 t-inv F
 -0.500000  0.000000 -0.166667       7 t-inv F
  0.000000 -0.333333  0.166667       8 t-inv F
  0.166667  0.000000 -0.333333       8 t-inv F
 -0.166667 -0.166667 -0.500000       8 t-inv F
  0.333333  0.500000  0.333333       8 t-inv F
  0.166667 -0.333333  0.000000       8 t-inv F
 -0.500000 -0.166667 -0.166667       8 t-inv F
  0.333333  0.333333  0.500000       8 t-inv F
  0.000000  0.166667 -0.333333       8 t-inv F
 -0.166667 -0.500000 -0.166667       8 t-inv F
  0.500000  0.333333  0.333333       8 t-inv F
 -0.333333  0.000000  0.166667       8 t-inv F
  0.333333 -0.166667  0.000000       8 t-inv F
  0.000000  0.333333 -0.166667       8 t-inv F
 -0.166667  0.000000  0.333333       8 t-inv F
  0.166667  0.166667  0.500000       8 t-inv F
 -0.333333 -0.500000 -0.333333       8 t-inv F
 -0.166667  0.333333  0.000000       8 t-inv F
  0.500000  0.166667  0.166667       8 t-inv F
 -0.333333 -0.333333 -0.500000       8 t-inv F
  0.000000 -0.166667  0.333333       8 t-inv F
  0.166667  0.500000  0.166667       8 t-inv F
 -0.500000 -0.333333 -0.333333       8 t-inv F
  0.333333  0.000000 -0.166667       8 t-inv F
  0.000000 -0.166667  0.166667       9 t-inv F
  0.166667  0.000000 -0.166667       9 t-inv F
 -0.166667 -0.166667 -0.333333       9 t-inv F
  0.166667  0.333333  0.166667       9 t-inv F
  0.166667 -0.166667  0.000000       9 t-inv F
 -0.333333 -0.166667 -0.166667       9 t-inv F
  0.166667  0.166667  0.333333       9 t-inv F
  0.000000  0.166667 -0.166667       9 t-inv F
 -0.166667 -0.333333 -0.166667       9 t-inv F
  0.333333  0.166667  0.166667       9 t-inv F
 -0.166667  0.000000  0.166667       9 t-inv F
  0.000000  0.333333  0.333333      10 t-inv F
  0.333333  0.000000  0.333333      10 t-inv F
 -0.333333 -0.333333  0.000000      10 t-inv F
 -0.333333  0.000000 -0.333333      10 t-inv F
  0.000000 -0.333333 -0.333333      10 t-inv F
  0.000000  0.500000  0.333333      11 t-inv F
  0.333333  0.000000  0.500000      11 t-inv F
 -0.333333 -0.333333  0.166667      11 t-inv F
 -0.500000 -0.166667 -0.500000      11 t-inv F
  0.333333  0.500000  0.000000      11 t-inv F
  0.166667 -0.333333 -0.333333      11 t-inv F
 -0.500000 -0.500000 -0.166667      11 t-inv F
  0.000000  0.333333  0.500000      11 t-inv F
 -0.333333  0.166667 -0.333333      11 t-inv F
 -0.166667 -0.500000 -0.500000      11 t-inv F
  0.500000  0.000000  0.333333      11 t-inv F
 -0.500000 -0.333333  0.000000      11 t-inv F
  0.000000 -0.500000 -0.333333      11 t-inv F
 -0.333333  0.000000 -0.500000      11 t-inv F
  0.333333  0.333333 -0.166667      11 t-inv F
  0.500000  0.166667  0.500000      11 t-inv F
 -0.333333 -0.500000  0.000000      11 t-inv F
 -0.166667  0.333333  0.333333      11 t-inv F
  0.500000  0.500000  0.166667      11 t-inv F
  0.000000 -0.333333 -0.500000      11 t-inv F
  0.333333 -0.166667  0.333333      11 t-inv F
  0.166667  0.500000  0.500000      11 t-inv F
 -0.500000  0.000000 -0.333333      11 t-inv F
  0.000000 -0.333333  0.333333      12 t-inv F
  0.333333  0.000000 -0.333333      12 t-inv F
 -0.333333 -0.333333 -0.666667      12 t-inv F
  0.333333  0.666667  0.333333      12 t-inv F
  0.333333 -0.333333  0.000000      12 t-inv F
 -0.666667 -0.333333 -0.333333      12 t-inv F
  0.333333  0.333333  0.666667      12 t-inv F
  0.000000  0.333333 -0.333333      12 t-inv F
 -0.333333 -0.666667 -0.333333      12 t-inv F
  0.666667  0.333333  0.333333      12 t-inv F
 -0.333333  0.000000  0.333333      12 t-inv F
  0.000000  0.500000  0.500000      13 t-inv F
  0.500000  0.000000  0.500000      13 t-inv F
  0.166667  0.500000  0.333333      14 t-inv F
  0.333333  0.166667  0.500000      14 t-inv F
 -0.333333 -0.166667  0.166667      14 t-inv F
 -0.500000 -0.166667 -0.333333      14 t-inv F
 -0.166667  0.333333  0.166667      14 t-inv F
  0.166667  0.333333 -0.166667      14 t-inv F
  0.166667 -0.166667 -0.333333      14 t-inv F
 -0.333333 -0.166667 -0.500000      14 t-inv F
 -0.333333 -0.500000 -0.166667      14 t-inv F
  0.166667 -0.166667  0.333333      14 t-inv F
  0.166667 -0.333333 -0.166667      14 t-inv F
 -0.166667  0.166667  0.333333      14 t-inv F
 -0.333333  0.166667 -0.166667      14 t-inv F
 -0.500000 -0.333333 -0.166667      14 t-inv F
 -0.166667 -0.333333 -0.500000      14 t-inv F
  0.333333  0.166667 -0.166667      14 t-inv F
 -0.166667  0.166667 -0.333333      14 t-inv F
  0.333333 -0.166667  0.166667      14 t-inv F
 -0.166667 -0.333333  0.166667      14 t-inv F
 -0.166667 -0.500000 -0.333333      14 t-inv F
  0.500000  0.166667  0.333333      14 t-inv F
  0.333333  0.500000  0.166667      14 t-inv F
  0.166667  0.333333  0.500000      14 t-inv F
  0.166667 -0.333333  0.333333      15 t-inv F
  0.333333  0.166667 -0.333333      15 t-inv F
 -0.333333 -0.166667 -0.666667      15 t-inv F
  0.333333  0.666667  0.500000      15 t-inv F
 -0.166667 -0.500000  0.166667      15 t-inv F
  0.166667 -0.500000 -0.166667      15 t-inv F
 -0.666667 -0.166667 -0.333333      15 t-inv F
  0.500000  0.666667  0.333333      15 t-inv F
  0.500000  0.333333  0.666667      15 t-inv F
  0.166667 -0.166667 -0.500000      15 t-inv F
 -0.666667 -0.333333 -0.166667      15 t-inv F
 -0.166667  0.166667 -0.500000      15 t-inv F
 -0.333333 -0.666667 -0.166667      15 t-inv F
  0.333333  0.500000  0.666667      15 t-inv F
  0.666667  0.500000  0.333333      15 t-inv F
 -0.500000  0.166667 -0.166667      15 t-inv F
 -0.166667 -0.666667 -0.333333      15 t-inv F
 -0.500000 -0.166667  0.166667      15 t-inv F
 -0.166667 -0.333333 -0.666667      15 t-inv F
  0.666667  0.333333  0.500000      15 t-inv F
 -0.333333  0.166667  0.333333      15 t-inv F
  0.333333 -0.333333  0.166667      15 t-inv F
  0.166667  0.333333 -0.333333      15 t-inv F
  0.166667 -0.333333  0.500000      16 t-inv F
  0.500000  0.166667 -0.333333      16 t-inv F
 -0.500000 -0.333333 -0.833333      16 t-inv F
  0.333333  0.833333  0.500000      16 t-inv F
 -0.166667 -0.500000  0.333333      16 t-inv F
  0.333333 -0.500000 -0.166667      16 t-inv F
  0.500000  0.833333  0.333333      16 t-inv F
  0.500000  0.333333  0.833333      16 t-inv F
 -0.833333 -0.500000 -0.333333      16 t-inv F
 -0.166667  0.333333 -0.500000      16 t-inv F
 -0.333333 -0.833333 -0.500000      16 t-inv F


--------------------------------------------------------------------------------------------------------




 Dimension of arrays:
   k-points           NKPTS =    597   k-points in BZ     NKDIM =    797   number of bands    NBANDS=      8
   number of dos      NEDOS =    301   number of ions     NIONS =      2
   non local maximal  LDIM  =      4   non local SUM 2l+1 LMDIM =      8
   total plane-waves  NPLWV =  21952
   max r-space proj   IRMAX =      1   max aug-charges    IRDMAX=  18525
   dimension x,y,z NGX =    28 NGY =   28 NGZ =   28
   dimension x,y,z NGXF=    56 NGYF=   56 NGZF=   56
   support grid    NGXF=    56 NGYF=   56 NGZF=   56
   ions per type =               2
 NGX,Y,Z   is equivalent  to a cutoff of  12.12, 12.12, 12.12 a.u.
 NGXF,Y,Z  is equivalent  to a cutoff of  24.24, 24.24, 24.24 a.u.


 I would recommend the setting:
   dimension x,y,z NGX =    28 NGY =   28 NGZ =   28
 SYSTEM =  Name                                    
 POSCAR =  Si (Madelung Handbook, 295.7K)          

 Startparameter for this run:
   NWRITE =      2    write-flag & timer
   PREC   = accura    normal or accurate (medium, high low for compatibility)
   ISTART =      0    job   : 0-new  1-cont  2-samecut
   ICHARG =      2    charge: 1-file 2-atom 10-const
   ISPIN  =      1    spin polarized calculation?
   LNONCOLLINEAR =      F non collinear calculations
   LSORBIT =      F    spin-orbit coupling
   INIWAV =      1    electr: 0-lowe 1-rand  2-diag
   LASPH  =      F    aspherical Exc in radial PAW
   METAGGA=      F    non-selfconsistent MetaGGA calc.

 Electronic Relaxation 1
   ENCUT  =  500.0 eV  36.75 Ry    6.06 a.u.   7.00  7.00  7.00*2*pi/ulx,y,z
   ENINI  =  500.0     initial cutoff
   ENAUG  =  322.1 eV  augmentation charge cutoff
   NELM   =     60;   NELMIN=  5; NELMDL=  0     # of ELM steps 
   EDIFF  = 0.1E-05   stopping-criterion for ELM
   LREAL  =      F    real-space projection
   NLSPLINE    = F    spline interpolate recip. space projectors
   LCOMPAT=      F    compatible to vasp.4.4
   GGA_COMPAT  = T    GGA compatible to vasp.4.4-vasp.4.6
   LMAXPAW     = -100 max onsite density
   LMAXMIX     =    2 max onsite mixed and CHGCAR
   VOSKOWN=      0    Vosko Wilk Nusair interpolation
   ROPT   =    0.00000
 Ionic relaxation
   EDIFFG = -.5E-02   stopping-criterion for IOM
   NSW    =      1    number of steps for IOM
   NBLOCK =      1;   KBLOCK =      1    inner block; outer block 
   IBRION =      2    ionic relax: 0-MD 1-quasi-New 2-CG
   NFREE  =      1    steps in history (QN), initial steepest desc. (CG)
   ISIF   =      3    stress and relaxation
   IWAVPR =     11    prediction:  0-non 1-charg 2-wave 3-comb
   ISYM   =      2    0-nonsym 1-usesym 2-fastsym
   LCORR  =      T    Harris-Foulkes like correction to forces

   POTIM  = 0.5000    time-step for ionic-motion
   TEIN   =    0.0    initial temperature
   TEBEG  =    0.0;   TEEND  =   0.0 temperature during run
   SMASS  =  -3.00    Nose mass-parameter (am)
   estimated Nose-frequenzy (Omega)   =  0.10E-29 period in steps =****** mass=  -0.337E-27a.u.
   SCALEE = 1.0000    scale energy and forces
   NPACO  =    256;   APACO  = 16.0  distance and # of slots for P.C.
   PSTRESS=    0.0 pullay stress

  Mass of Ions in am
   POMASS =  28.09
  Ionic Valenz
   ZVAL   =   4.00
  Atomic Wigner-Seitz radii
   RWIGS  =  -1.00
  virtual crystal weights 
   VCA    =   1.00
   NELECT =       8.0000    total number of electrons
   NUPDOWN=      -1.0000    fix difference up-down

 DOS related values:
   EMIN   =  10.00;   EMAX   =-10.00  energy-range for DOS
   EFERMI =   0.00
   ISMEAR =     0;   SIGMA  =   0.01  broadening in eV -4-tet -1-fermi 0-gaus

 Electronic relaxation 2 (details)
   IALGO  =     58    algorithm
   LDIAG  =      T    sub-space diagonalisation (order eigenvalues)
   LSUBROT=      F    optimize rotation matrix (better conditioning)
   TURBO    =      0    0=normal 1=particle mesh
   IRESTART =      0    0=no restart 2=restart with 2 vectors
   NREBOOT  =      0    no. of reboots
   NMIN     =      0    reboot dimension
   EREF     =   0.00    reference energy to select bands
   IMIX   =      4    mixing-type and parameters
     AMIX     =   0.40;   BMIX     =  1.00
     AMIX_MAG =   1.60;   BMIX_MAG =  1.00
     AMIN     =   0.01
     WC   =   100.;   INIMIX=   1;  MIXPRE=   1;  MAXMIX= -45

 Intra band minimization:
   WEIMIN = 0.0010     energy-eigenvalue tresh-hold
   EBREAK =  0.31E-07  absolut break condition
   DEPER  =   0.30     relativ break condition  

   TIME   =   0.40     timestep for ELM

  volume/ion in A,a.u.               =      20.02       135.13
  Fermi-wavevector in a.u.,A,eV,Ry     =   0.956999  1.808467 12.460868  0.915848
  Thomas-Fermi vector in A             =   2.085978
 
 Write flags
   LWAVE  =      T    write WAVECAR
   LCHARG =      T    write CHGCAR
   LVTOT  =      F    write LOCPOT, total local potential
   LVHAR  =      F    write LOCPOT, Hartree potential only
   LELF   =      F    write electronic localiz. function (ELF)
   LORBIT =     10    0 simple, 1 ext, 2 COOP (PROOUT)


 Dipole corrections
   LMONO  =      F    monopole corrections only (constant potential shift)
   LDIPOL =      F    correct potential (dipole corrections)
   IDIPOL =      0    1-x, 2-y, 3-z, 4-all directions 
   EPSILON=  1.0000000 bulk dielectric constant

 Core level calculations are selected ICORELEVEL =  1
 Exchange correlation treatment:
   GGA     =    PE    GGA type
   LEXCH   =     8    internal setting for exchange type
   VOSKOWN=      0    Vosko Wilk Nusair interpolation
   EXXOEP  =     0    0=HF, 1=EXX-LHF (local Hartree Fock) 2=EXX OEP
   LHFCALC =     T    Hartree Fock is set to
   LSYMGRAD=     F    symmetrize gradient (conserves proper symmetry)
   PRECFOCK=fast      Normal, Fast or Accurate (Low or Medium for compatibility)
   LRHFCALC=     F    long range Hartree Fock
   LRSCOR  =     F    long range correlation only (use DFT for short range part)
   LTHOMAS =     F    Thomas Fermi screening in HF
   LMODELHF=     F    short range full HF, long range fraction AEXX
   ENCUT4O =  -1.0   cutoff for four orbital integrals eV
   LMAXFOCK=     4    L truncation for augmentation on plane wave grid
   LMAXFOCKAE=  -1    L truncation for all-electron charge restoration on plane wave grid
   NMAXFOCKAE=   1    number of basis functions for all-electron charge restoration
   LFOCKAEDFT=     F  apply the AE augmentation even for DFT
   NKREDX  =     1    reduce k-point grid by
   NKREDY  =     1    reduce k-point grid by
   NKREDZ  =     1    reduce k-point grid by
   SHIFTRED=     F    shift reduced grid of Gamma
   HFKIDENT=     F    idential grid for each k-point
   ODDONLY =     F    use only odd q-grid points
   EVENONLY=     F    use only even q-grid points
   HFALPHA =   -1.0000 decay constant for conv. correction
   MCALPHA =    0.0000 extent of test-charge in conv. correction in multipole expansion
   AEXX    =    0.2500 exact exchange contribution
   HFSCREEN=    0.2070 screening length (either q_TF or 0.3 A-1)
   HFSCREENC=   0.2070 screening length for correlation (either q_TF or 0.3 A-1)
   HFRCUT  =    0.0000 spherical cutoff for potential kernel
   ALDAX   =    0.7500 LDA exchange part
   AGGAX   =    0.7500 GGA exchange part
   ALDAC   =    1.0000 LDA correlation
   AGGAC   =    1.0000 GGA correlation
   NBANDSGWLOW=     1    first orbital included in HF term
   ENCUTFOCK=  -1.0 apply spherical cutoff to Coloumb kernel
 Linear response parameters
   LEPSILON=     F    determine dielectric tensor
   LRPA    =     F    only Hartree local field effects (RPA)
   LNABLA  =     F    use nabla operator in PAW spheres
   LVEL    =     F    velocity operator in full k-point grid
   LINTERFAST=   F  fast interpolation
   KINTER  =     0    interpolate to denser k-point grid
   CSHIFT  =0.1000    complex shift for real part using Kramers Kronig
   OMEGAMAX=  -1.0    maximum frequency
   DEG_THRESHOLD= 0.2000000E-02 threshold for treating states as degnerate
   RTIME   =    0.100 relaxation time in fs

 Orbital magnetization related:
   ORBITALMAG=     F  switch on orbital magnetization
   LCHIMAG   =     F  perturbation theory with respect to B field
   DQ        =  0.001000  dq finite difference perturbation B field



--------------------------------------------------------------------------------------------------------


 conjugate gradient relaxation of ions
 charge density and potential will be updated during run
 non-spin polarized calculation
 Conjugate gradient for all bands (Freysoldt, et al. PRB 79, 241103 (2009))
 preconditioned conjugated gradient                                        
 perform sub-space diagonalisation
    before iterative eigenvector-optimisation
 modified Broyden-mixing scheme, WC =      100.0
 initial mixing is a Kerker type mixing with AMIX =  0.4000 and BMIX =      1.0000
 Hartree-type preconditioning will be used
 using additional bands            4
 reciprocal scheme for non local part
 use partial core corrections
 no Harris-corrections to forces 
 use gradient corrections 
 use of overlap-Matrix (Vanderbilt PP)
 Gauss-broadening in eV      SIGMA  =   0.01


--------------------------------------------------------------------------------------------------------


  energy-cutoff  :      500.00
  volume of cell :       40.05
      direct lattice vectors                 reciprocal lattice vectors
     2.715500000  2.715500000  0.000000000     0.184128153  0.184128153  0.184128153
     2.715500000  0.000000000 -2.715500000     0.184128153 -0.184128153 -0.184128153
     0.000000000  2.715500000 -2.715500000    -0.184128153  0.184128153 -0.184128153

  length of vectors
     3.840296929  3.840296929  3.840296929     0.318919316  0.318919316  0.318919316


 
 k-points in units of 2pi/SCALE and weight: Automatically generated mesh            
   0.00000000  0.00000000  0.00000000       0.005
   0.16666667  0.16666667  0.16666667       0.037
   0.33333333  0.33333333  0.33333333       0.037
   0.50000000  0.50000000  0.50000000       0.019
   0.33333333  0.00000000  0.00000000       0.028
   0.50000000  0.16666667  0.16666667       0.111
   0.66666667  0.33333333  0.33333333       0.111
  -0.16666667 -0.50000000 -0.50000000       0.111
   0.00000000 -0.33333333 -0.33333333       0.056
   0.66666667  0.00000000  0.00000000       0.028
   0.83333333  0.16666667  0.16666667       0.111
   0.00000000 -0.66666667 -0.66666667       0.056
   1.00000000  0.00000000  0.00000000       0.014
   0.66666667  0.33333333  0.00000000       0.111
  -0.16666667 -0.50000000 -0.83333333       0.111
   0.00000000 -0.66666667 -1.00000000       0.056
   0.00000000  0.00000000  0.00000000       0.000
   0.00000000  0.01000000  0.00000000       0.000
   0.00000000  0.02000000  0.00000000       0.000
   0.00000000  0.03000000  0.00000000       0.000
   0.00000000  0.04000000  0.00000000       0.000
   0.00000000  0.05000000  0.00000000       0.000
   0.00000000  0.06000000  0.00000000       0.000
   0.00000000  0.07000000  0.00000000       0.000
   0.00000000  0.08000000  0.00000000       0.000
   0.00000000  0.09000000  0.00000000       0.000
   0.00000000  0.10000000  0.00000000       0.000
   0.00000000  0.11000000  0.00000000       0.000
   0.00000000  0.12000000  0.00000000       0.000
   0.00000000  0.13000000  0.00000000       0.000
   0.00000000  0.14000000  0.00000000       0.000
   0.00000000  0.15000000  0.00000000       0.000
   0.00000000  0.16000000  0.00000000       0.000
   0.00000000  0.17000000  0.00000000       0.000
   0.00000000  0.18000000  0.00000000       0.000
   0.00000000  0.19000000  0.00000000       0.000
   0.00000000  0.19999998  0.00000000       0.000
   0.00000000  0.21000000  0.00000000       0.000
   0.00000000  0.22000000  0.00000000       0.000
   0.00000000  0.22999998  0.00000000       0.000
   0.00000000  0.24000000  0.00000000       0.000
   0.00000000  0.25000000  0.00000000       0.000
   0.00000000  0.26000000  0.00000000       0.000
   0.00000000  0.26999998  0.00000000       0.000
   0.00000000  0.28000000  0.00000000       0.000
   0.00000000  0.29000000  0.00000000       0.000
   0.00000000  0.29999998  0.00000000       0.000
   0.00000000  0.31000000  0.00000000       0.000
   0.00000000  0.32000000  0.00000000       0.000
   0.00000000  0.32999998  0.00000000       0.000
   0.00000000  0.34000000  0.00000000       0.000
   0.00000000  0.35000000  0.00000000       0.000
   0.00000000  0.36000002  0.00000000       0.000
   0.00000000  0.36999998  0.00000000       0.000
   0.00000000  0.38000000  0.00000000       0.000
   0.00000000  0.39000002  0.00000000       0.000
   0.00000000  0.39999998  0.00000000       0.000
   0.00000000  0.41000000  0.00000000       0.000
   0.00000000  0.42000002  0.00000000       0.000
   0.00000000  0.42999998  0.00000000       0.000
   0.00000000  0.44000000  0.00000000       0.000
   0.00000000  0.45000002  0.00000000       0.000
   0.00000000  0.45999998  0.00000000       0.000
   0.00000000  0.47000000  0.00000000       0.000
   0.00000000  0.48000002  0.00000000       0.000
   0.00000000  0.48999998  0.00000000       0.000
   0.00000000  0.50000000  0.00000000       0.000
   0.00000000  0.51000000  0.00000000       0.000
   0.00000000  0.51999998  0.00000000       0.000
   0.00000000  0.52999998  0.00000000       0.000
   0.00000000  0.53999996  0.00000000       0.000
   0.00000000  0.55000002  0.00000000       0.000
   0.00000000  0.56000000  0.00000000       0.000
   0.00000000  0.57000000  0.00000000       0.000
   0.00000000  0.57999998  0.00000000       0.000
   0.00000000  0.58999998  0.00000000       0.000
   0.00000000  0.59999996  0.00000000       0.000
   0.00000000  0.61000002  0.00000000       0.000
   0.00000000  0.62000000  0.00000000       0.000
   0.00000000  0.63000000  0.00000000       0.000
   0.00000000  0.63999998  0.00000000       0.000
   0.00000000  0.64999998  0.00000000       0.000
   0.00000000  0.65999996  0.00000000       0.000
   0.00000000  0.67000002  0.00000000       0.000
   0.00000000  0.68000000  0.00000000       0.000
   0.00000000  0.69000000  0.00000000       0.000
   0.00000000  0.69999998  0.00000000       0.000
   0.00000000  0.70999998  0.00000000       0.000
   0.00000000  0.72000002  0.00000000       0.000
   0.00000000  0.72999996  0.00000000       0.000
   0.00000000  0.73999994  0.00000000       0.000
   0.00000000  0.75000000  0.00000000       0.000
   0.00000000  0.76000000  0.00000000       0.000
   0.00000000  0.76999998  0.00000000       0.000
   0.00000000  0.78000004  0.00000000       0.000
   0.00000000  0.78999996  0.00000000       0.000
   0.00000000  0.79999996  0.00000000       0.000
   0.00000000  0.81000000  0.00000000       0.000
   0.00000000  0.82000000  0.00000000       0.000
   0.00000000  0.82999998  0.00000000       0.000
   0.00000000  0.84000004  0.00000000       0.000
   0.00000000  0.84999996  0.00000000       0.000
   0.00000000  0.85999996  0.00000000       0.000
   0.00000000  0.87000000  0.00000000       0.000
   0.00000000  0.88000000  0.00000000       0.000
   0.00000000  0.88999998  0.00000000       0.000
   0.00000000  0.90000004  0.00000000       0.000
   0.00000000  0.90999996  0.00000000       0.000
   0.00000000  0.91999996  0.00000000       0.000
   0.00000000  0.93000000  0.00000000       0.000
   0.00000000  0.94000000  0.00000000       0.000
   0.00000000  0.94999998  0.00000000       0.000
   0.00000000  0.96000004  0.00000000       0.000
   0.00000000  0.96999996  0.00000000       0.000
   0.00000000  0.97999996  0.00000000       0.000
   0.00000000  0.99000000  0.00000000       0.000
   0.00000000  1.00000000  0.00000000       0.000
   0.00320514  0.99679486 -0.00961538       0.000
   0.00641027  0.99358973 -0.01923075       0.000
   0.00961541  0.99038459 -0.02884613       0.000
   0.01282049  0.98717951 -0.03846157       0.000
   0.01602562  0.98397438 -0.04807694       0.000
   0.01923076  0.98076924 -0.05769232       0.000
   0.02243590  0.97756410 -0.06730770       0.000
   0.02564103  0.97435897 -0.07692307       0.000
   0.02884617  0.97115383 -0.08653845       0.000
   0.03205130  0.96794870 -0.09615384       0.000
   0.03525643  0.96474357 -0.10576921       0.000
   0.03846151  0.96153849 -0.11538465       0.000
   0.04166665  0.95833335 -0.12500003       0.000
   0.04487178  0.95512822 -0.13461540       0.000
   0.04807692  0.95192308 -0.14423078       0.000
   0.05128205  0.94871795 -0.15384615       0.000
   0.05448719  0.94551281 -0.16346153       0.000
   0.05769233  0.94230767 -0.17307691       0.000
   0.06089746  0.93910254 -0.18269228       0.000
   0.06410255  0.93589745 -0.19230773       0.000
   0.06730768  0.93269232 -0.20192310       0.000
   0.07051282  0.92948718 -0.21153848       0.000
   0.07371794  0.92628206 -0.22115384       0.000
   0.07692309  0.92307691 -0.23076923       0.000
   0.08012823  0.91987177 -0.24038461       0.000
   0.08333336  0.91666664 -0.24999998       0.000
   0.08653850  0.91346150 -0.25961536       0.000
   0.08974357  0.91025643 -0.26923079       0.000
   0.09294872  0.90705128 -0.27884618       0.000
   0.09615384  0.90384616 -0.28846156       0.000
   0.09935897  0.90064103 -0.29807693       0.000
   0.10256411  0.89743589 -0.30769231       0.000
   0.10576926  0.89423074 -0.31730770       0.000
   0.10897438  0.89102562 -0.32692306       0.000
   0.11217946  0.88782054 -0.33653850       0.000
   0.11538459  0.88461541 -0.34615387       0.000
   0.11858974  0.88141026 -0.35576926       0.000
   0.12179486  0.87820514 -0.36538462       0.000
   0.12500000  0.87500000 -0.37500000       0.000
   0.12083334  0.87083334 -0.38749998       0.000
   0.11666667  0.86666667 -0.39999999       0.000
   0.11250001  0.86250001 -0.41249997       0.000
   0.10833335  0.85833329 -0.42500001       0.000
   0.10416669  0.85416663 -0.43749999       0.000
   0.10000002  0.84999996 -0.45000000       0.000
   0.09583336  0.84583330 -0.46249998       0.000
   0.09166664  0.84166670 -0.47500002       0.000
   0.08749998  0.83750004 -0.48750000       0.000
   0.08333331  0.83333337 -0.50000001       0.000
   0.07916665  0.82916665 -0.51250005       0.000
   0.07499999  0.82499999 -0.52500003       0.000
   0.07083333  0.82083333 -0.53750001       0.000
   0.06666666  0.81666666 -0.55000002       0.000
   0.06250000  0.81250000 -0.56250000       0.000
   0.05833334  0.80833334 -0.57499998       0.000
   0.05416667  0.80416667 -0.58749999       0.000
   0.05000001  0.80000001 -0.59999997       0.000
   0.04583335  0.79583329 -0.61250001       0.000
   0.04166669  0.79166663 -0.62499999       0.000
   0.03750002  0.78749996 -0.63750000       0.000
   0.03333330  0.78333336 -0.65000004       0.000
   0.02916664  0.77916670 -0.66250002       0.000
   0.02499998  0.77500004 -0.67500000       0.000
   0.02083331  0.77083337 -0.68750001       0.000
   0.01666665  0.76666665 -0.70000005       0.000
   0.01249999  0.76249999 -0.71250003       0.000
   0.00833333  0.75833333 -0.72500001       0.000
   0.00416666  0.75416666 -0.73750002       0.000
   0.00000000  0.75000000 -0.75000000       0.000
   0.00000000  0.74418604 -0.74418604       0.000
  -0.00000001  0.73837209 -0.73837209       0.000
   0.00000001  0.73255813 -0.73255813       0.000
   0.00000001  0.72674417 -0.72674417       0.000
   0.00000000  0.72093022 -0.72093022       0.000
   0.00000000  0.71511626 -0.71511626       0.000
  -0.00000001  0.70930231 -0.70930231       0.000
  -0.00000001  0.70348835 -0.70348835       0.000
   0.00000001  0.69767439 -0.69767439       0.000
   0.00000000  0.69186044 -0.69186044       0.000
   0.00000000  0.68604648 -0.68604648       0.000
   0.00000000  0.68023252 -0.68023252       0.000
  -0.00000001  0.67441857 -0.67441857       0.000
   0.00000001  0.66860467 -0.66860467       0.000
   0.00000000  0.66279072 -0.66279072       0.000
   0.00000000  0.65697676 -0.65697676       0.000
   0.00000000  0.65116280 -0.65116280       0.000
  -0.00000001  0.64534885 -0.64534885       0.000
   0.00000001  0.63953489 -0.63953489       0.000
   0.00000001  0.63372093 -0.63372093       0.000
   0.00000000  0.62790698 -0.62790698       0.000
   0.00000000  0.62209302 -0.62209302       0.000
  -0.00000001  0.61627907 -0.61627907       0.000
  -0.00000001  0.61046511 -0.61046511       0.000
   0.00000001  0.60465115 -0.60465115       0.000
   0.00000000  0.59883720 -0.59883720       0.000
   0.00000000  0.59302324 -0.59302324       0.000
   0.00000000  0.58720928 -0.58720928       0.000
  -0.00000001  0.58139533 -0.58139533       0.000
   0.00000001  0.57558137 -0.57558137       0.000
   0.00000000  0.56976742 -0.56976742       0.000
   0.00000000  0.56395352 -0.56395352       0.000
   0.00000000  0.55813956 -0.55813956       0.000
  -0.00000001  0.55232561 -0.55232561       0.000
   0.00000001  0.54651165 -0.54651165       0.000
   0.00000001  0.54069769 -0.54069769       0.000
   0.00000000  0.53488374 -0.53488374       0.000
   0.00000000  0.52906978 -0.52906978       0.000
  -0.00000001  0.52325583 -0.52325583       0.000
  -0.00000001  0.51744187 -0.51744187       0.000
   0.00000001  0.51162791 -0.51162791       0.000
   0.00000000  0.50581396 -0.50581396       0.000
   0.00000000  0.50000000 -0.50000000       0.000
   0.00000000  0.49418604 -0.49418604       0.000
  -0.00000001  0.48837209 -0.48837209       0.000
   0.00000001  0.48255813 -0.48255813       0.000
   0.00000001  0.47674417 -0.47674417       0.000
   0.00000000  0.47093022 -0.47093022       0.000
   0.00000000  0.46511626 -0.46511626       0.000
  -0.00000001  0.45930231 -0.45930231       0.000
  -0.00000001  0.45348835 -0.45348835       0.000
   0.00000001  0.44767439 -0.44767439       0.000
  -0.00000001  0.44186047 -0.44186047       0.000
   0.00000001  0.43604651 -0.43604651       0.000
   0.00000001  0.43023255 -0.43023255       0.000
   0.00000000  0.42441860 -0.42441860       0.000
   0.00000000  0.41860464 -0.41860464       0.000
  -0.00000001  0.41279069 -0.41279069       0.000
  -0.00000001  0.40697673 -0.40697673       0.000
   0.00000001  0.40116277 -0.40116277       0.000
   0.00000000  0.39534882 -0.39534882       0.000
   0.00000000  0.38953486 -0.38953486       0.000
   0.00000001  0.38372093 -0.38372093       0.000
   0.00000000  0.37790698 -0.37790698       0.000
   0.00000000  0.37209302 -0.37209302       0.000
  -0.00000001  0.36627907 -0.36627907       0.000
  -0.00000001  0.36046511 -0.36046511       0.000
   0.00000001  0.35465115 -0.35465115       0.000
   0.00000000  0.34883720 -0.34883720       0.000
   0.00000000  0.34302324 -0.34302324       0.000
   0.00000000  0.33720928 -0.33720928       0.000
   0.00000000  0.33139536 -0.33139536       0.000
   0.00000000  0.32558140 -0.32558140       0.000
  -0.00000001  0.31976745 -0.31976745       0.000
  -0.00000001  0.31395349 -0.31395349       0.000
   0.00000001  0.30813953 -0.30813953       0.000
   0.00000000  0.30232558 -0.30232558       0.000
   0.00000000  0.29651162 -0.29651162       0.000
   0.00000000  0.29069766 -0.29069766       0.000
  -0.00000001  0.28488371 -0.28488371       0.000
   0.00000001  0.27906975 -0.27906975       0.000
  -0.00000001  0.27325583 -0.27325583       0.000
  -0.00000001  0.26744187 -0.26744187       0.000
   0.00000001  0.26162791 -0.26162791       0.000
   0.00000000  0.25581396 -0.25581396       0.000
   0.00000000  0.25000000 -0.25000000       0.000
   0.00000000  0.24418604 -0.24418604       0.000
  -0.00000001  0.23837209 -0.23837209       0.000
   0.00000001  0.23255813 -0.23255813       0.000
   0.00000001  0.22674417 -0.22674417       0.000
   0.00000000  0.22093022 -0.22093022       0.000
   0.00000000  0.21511626 -0.21511626       0.000
  -0.00000001  0.20930231 -0.20930231       0.000
  -0.00000001  0.20348835 -0.20348835       0.000
   0.00000001  0.19767439 -0.19767439       0.000
   0.00000000  0.19186044 -0.19186044       0.000
   0.00000000  0.18604648 -0.18604648       0.000
   0.00000000  0.18023252 -0.18023252       0.000
  -0.00000001  0.17441857 -0.17441857       0.000
   0.00000001  0.16860461 -0.16860461       0.000
   0.00000000  0.16279066 -0.16279066       0.000
   0.00000000  0.15697670 -0.15697670       0.000
   0.00000000  0.15116274 -0.15116274       0.000
  -0.00000001  0.14534879 -0.14534879       0.000
   0.00000001  0.13953483 -0.13953483       0.000
   0.00000001  0.13372093 -0.13372093       0.000
[...]
      3       3.6839      2.00000
      4       4.0539      2.00000
      5       8.1216      0.00000
      6       9.5410      0.00000
      7       9.8451      0.00000
      8      14.3691      0.00000

 k-point   564 :       0.4738    0.4738    0.5523
  band No.  band energies     occupation 
      1      -5.1418      2.00000
      2      -2.1971      2.00000
      3       3.5755      2.00000
      4       4.0269      2.00000
      5       8.1968      0.00000
      6       9.5405      0.00000
      7       9.9049      0.00000
      8      14.4272      0.00000

 k-point   565 :       0.4709    0.4709    0.5581
  band No.  band energies     occupation 
      1      -5.1230      2.00000
      2      -2.1879      2.00000
      3       3.4610      2.00000
      4       3.9975      2.00000
      5       8.2662      0.00000
      6       9.5502      0.00000
      7       9.9709      0.00000
      8      14.4833      0.00000

 k-point   566 :       0.4680    0.4680    0.5640
  band No.  band energies     occupation 
      1      -5.1023      2.00000
      2      -2.1780      2.00000
      3       3.3418      2.00000
      4       3.9660      2.00000
      5       8.3258      0.00000
      6       9.5736      0.00000
      7      10.0430      0.00000
      8      14.5326      0.00000

 k-point   567 :       0.4651    0.4651    0.5698
  band No.  band energies     occupation 
      1      -5.0796      2.00000
      2      -2.1675      2.00000
      3       3.2188      2.00000
      4       3.9324      2.00000
      5       8.3720      0.00000
      6       9.6138      0.00000
      7      10.1208      0.00000
      8      14.5683      0.00000

 k-point   568 :       0.4622    0.4622    0.5756
  band No.  band energies     occupation 
      1      -5.0550      2.00000
      2      -2.1564      2.00000
      3       3.0928      2.00000
      4       3.8972      2.00000
      5       8.4026      0.00000
      6       9.6727      0.00000
      7      10.2042      0.00000
      8      14.5816      0.00000

 k-point   569 :       0.4593    0.4593    0.5814
  band No.  band energies     occupation 
      1      -5.0285      2.00000
      2      -2.1449      2.00000
      3       2.9648      2.00000
      4       3.8604      2.00000
      5       8.4170      0.00000
      6       9.7505      0.00000
      7      10.2930      0.00000
      8      14.5611      0.00000

 k-point   570 :       0.4564    0.4564    0.5872
  band No.  band energies     occupation 
      1      -5.0001      2.00000
      2      -2.1330      2.00000
      3       2.8355      2.00000
      4       3.8223      2.00000
      5       8.4163      0.00000
      6       9.8459      0.00000
      7      10.3868      0.00000
      8      14.5039      0.00000

 k-point   571 :       0.4535    0.4535    0.5930
  band No.  band energies     occupation 
      1      -4.9697      2.00000
      2      -2.1210      2.00000
      3       2.7055      2.00000
      4       3.7830      2.00000
      5       8.4027      0.00000
      6       9.9566      0.00000
      7      10.4856      0.00000
      8      14.4122      0.00000

 k-point   572 :       0.4506    0.4506    0.5988
  band No.  band energies     occupation 
      1      -4.9374      2.00000
      2      -2.1090      2.00000
      3       2.5754      2.00000
      4       3.7429      2.00000
      5       8.3787      0.00000
      6      10.0799      0.00000
      7      10.5890      0.00000
      8      14.2964      0.00000

 k-point   573 :       0.4477    0.4477    0.6047
  band No.  band energies     occupation 
      1      -4.9033      2.00000
      2      -2.0971      2.00000
      3       2.4459      2.00000
      4       3.7020      2.00000
      5       8.3466      0.00000
      6      10.2135      0.00000
      7      10.6969      0.00000
      8      14.1646      0.00000

 k-point   574 :       0.4448    0.4448    0.6105
  band No.  band energies     occupation 
      1      -4.8673      2.00000
      2      -2.0855      2.00000
      3       2.3174      2.00000
      4       3.6606      2.00000
      5       8.3084      0.00000
      6      10.3551      0.00000
      7      10.8090      0.00000
      8      14.0236      0.00000

 k-point   575 :       0.4419    0.4419    0.6163
  band No.  band energies     occupation 
      1      -4.8294      2.00000
      2      -2.0745      2.00000
      3       2.1904      2.00000
      4       3.6188      2.00000
      5       8.2657      0.00000
      6      10.5029      0.00000
      7      10.9253      0.00000
      8      13.8772      0.00000

 k-point   576 :       0.4390    0.4390    0.6221
  band No.  band energies     occupation 
      1      -4.7897      2.00000
      2      -2.0643      2.00000
      3       2.0656      2.00000
      4       3.5768      2.00000
      5       8.2197      0.00000
      6      10.6556      0.00000
      7      11.0454      0.00000
      8      13.7281      0.00000

 k-point   577 :       0.4360    0.4360    0.6279
  band No.  band energies     occupation 
      1      -4.7482      2.00000
      2      -2.0552      2.00000
      3       1.9433      2.00000
      4       3.5347      2.00000
      5       8.1716      0.00000
      6      10.8118      0.00000
      7      11.1693      0.00000
      8      13.5781      0.00000

 k-point   578 :       0.4331    0.4331    0.6337
  band No.  band energies     occupation 
      1      -4.7050      2.00000
      2      -2.0475      2.00000
      3       1.8241      2.00000
      4       3.4927      2.00000
      5       8.1220      0.00000
      6      10.9704      0.00000
      7      11.2967      0.00000
      8      13.4286      0.00000

 k-point   579 :       0.4302    0.4302    0.6395
  band No.  band energies     occupation 
      1      -4.6600      2.00000
      2      -2.0415      2.00000
      3       1.7086      2.00000
      4       3.4509      2.00000
      5       8.0716      0.00000
      6      11.1299      0.00000
      7      11.4275      0.00000
      8      13.2810      0.00000

 k-point   580 :       0.4273    0.4273    0.6453
  band No.  band energies     occupation 
      1      -4.6133      2.00000
      2      -2.0375      2.00000
      3       1.5972      2.00000
      4       3.4094      2.00000
      5       8.0208      0.00000
      6      11.2889      0.00000
      7      11.5615      0.00000
      8      13.1370      0.00000

 k-point   581 :       0.4244    0.4244    0.6512
  band No.  band energies     occupation 
      1      -4.5649      2.00000
      2      -2.0360      2.00000
      3       1.4905      2.00000
      4       3.3684      2.00000
      5       7.9702      0.00000
      6      11.4449      0.00000
      7      11.6985      0.00000
      8      12.9988      0.00000

 k-point   582 :       0.4215    0.4215    0.6570
  band No.  band energies     occupation 
      1      -4.5149      2.00000
      2      -2.0372      2.00000
      3       1.3890      2.00000
      4       3.3279      2.00000
      5       7.9199      0.00000
      6      11.5939      0.00000
      7      11.8384      0.00000
      8      12.8704      0.00000

 k-point   583 :       0.4186    0.4186    0.6628
  band No.  band energies     occupation 
      1      -4.4634      2.00000
      2      -2.0417      2.00000
      3       1.2933      2.00000
      4       3.2880      2.00000
      5       7.8702      0.00000
      6      11.7282      0.00000
      7      11.9810      0.00000
      8      12.7595      0.00000

 k-point   584 :       0.4157    0.4157    0.6686
  band No.  band energies     occupation 
      1      -4.4104      2.00000
      2      -2.0498      2.00000
      3       1.2040      2.00000
      4       3.2489      2.00000
      5       7.8215      0.00000
      6      11.8329      0.00000
      7      12.1261      0.00000
      8      12.6808      0.00000

 k-point   585 :       0.4128    0.4128    0.6744
  band No.  band energies     occupation 
      1      -4.3560      2.00000
      2      -2.0618      2.00000
      3       1.1215      2.00000
      4       3.2107      2.00000
      5       7.7738      0.00000
      6      11.8851      0.00000
      7      12.2735      0.00000
      8      12.6573      0.00000

 k-point   586 :       0.4099    0.4099    0.6802
  band No.  band energies     occupation 
      1      -4.3004      2.00000
      2      -2.0781      2.00000
      3       1.0464      2.00000
      4       3.1733      2.00000
      5       7.7274      0.00000
      6      11.8698      0.00000
      7      12.4230      0.00000
      8      12.7038      0.00000

 k-point   587 :       0.4070    0.4070    0.6860
  band No.  band energies     occupation 
      1      -4.2436      2.00000
      2      -2.0988      2.00000
      3       0.9790      2.00000
      4       3.1369      2.00000
      5       7.6823      0.00000
      6      11.7996      0.00000
      7      12.5743      0.00000
      8      12.8078      0.00000

 k-point   588 :       0.4041    0.4041    0.6919
  band No.  band energies     occupation 
      1      -4.1859      2.00000
      2      -2.1242      2.00000
      3       0.9198      2.00000
      4       3.1015      2.00000
      5       7.6387      0.00000
      6      11.6979      0.00000
      7      12.7273      0.00000
      8      12.9458      0.00000

 k-point   589 :       0.4012    0.4012    0.6977
  band No.  band energies     occupation 
      1      -4.1274      2.00000
      2      -2.1543      2.00000
      3       0.8689      2.00000
      4       3.0672      2.00000
      5       7.5967      0.00000
      6      11.5801      0.00000
      7      12.8811      0.00000
      8      13.1020      0.00000

 k-point   590 :       0.3983    0.3983    0.7035
  band No.  band energies     occupation 
      1      -4.0684      2.00000
      2      -2.1889      2.00000
      3       0.8266      2.00000
      4       3.0341      2.00000
      5       7.5564      0.00000
      6      11.4545      0.00000
      7      13.0356      0.00000
      8      13.2685      0.00000

 k-point   591 :       0.3953    0.3953    0.7093
  band No.  band energies     occupation 
      1      -4.0093      2.00000
      2      -2.2276      2.00000
      3       0.7929      2.00000
      4       3.0022      2.00000
      5       7.5178      0.00000
      6      11.3250      0.00000
      7      13.1899      0.00000
      8      13.4409      0.00000

 k-point   592 :       0.3924    0.3924    0.7151
  band No.  band energies     occupation 
      1      -3.9505      2.00000
      2      -2.2700      2.00000
      3       0.7677      2.00000
      4       2.9716      2.00000
      5       7.4810      0.00000
      6      11.1938      0.00000
      7      13.3433      0.00000
      8      13.6172      0.00000

 k-point   593 :       0.3895    0.3895    0.7209
  band No.  band energies     occupation 
      1      -3.8927      2.00000
      2      -2.3152      2.00000
      3       0.7509      2.00000
      4       2.9423      2.00000
      5       7.4461      0.00000
      6      11.0622      0.00000
      7      13.4940      0.00000
      8      13.7949      0.00000

 k-point   594 :       0.3866    0.3866    0.7267
  band No.  band energies     occupation 
      1      -3.8367      2.00000
      2      -2.3621      2.00000
      3       0.7421      2.00000
      4       2.9143      2.00000
      5       7.4130      0.00000
      6      10.9310      0.00000
      7      13.6404      0.00000
      8      13.9736      0.00000

 k-point   595 :       0.3837    0.3837    0.7326
  band No.  band energies     occupation 
      1      -3.7835      2.00000
      2      -2.4092      2.00000
      3       0.7411      2.00000
      4       2.8877      2.00000
      5       7.3819      0.00000
      6      10.8007      0.00000
      7      13.7792      0.00000
      8      14.1506      0.00000

 k-point   596 :       0.3808    0.3808    0.7384
  band No.  band energies     occupation 
      1      -3.7346      2.00000
      2      -2.4548      2.00000
      3       0.7473      2.00000
      4       2.8625      2.00000
      5       7.3528      0.00000
      6      10.6716      0.00000
      7      13.9068      0.00000
      8      14.3244      0.00000

 k-point   597 :       0.3779    0.3779    0.7442
  band No.  band energies     occupation 
      1      -3.6920      2.00000
      2      -2.4966      2.00000
      3       0.7604      2.00000
      4       2.8388      2.00000
      5       7.3256      0.00000
      6      10.5440      0.00000
      7      14.0176      0.00000
      8      14.4799      0.00000


--------------------------------------------------------------------------------------------------------


 soft charge-density along one line, spin component           1
         0         1         2         3         4         5         6         7         8         9
 total charge-density along one line
 
 pseudopotential strength for first ion, spin component:           1
 17.854  24.912  -0.000   0.000  -0.000  -0.000   0.000  -0.000
 24.912  34.762  -0.000   0.000  -0.000  -0.000   0.000  -0.000
 -0.000  -0.000   4.076   0.000  -0.000   7.599   0.000  -0.000
  0.000   0.000   0.000   4.076   0.000   0.000   7.599   0.000
 -0.000  -0.000  -0.000   0.000   4.076  -0.000   0.000   7.599
 -0.000  -0.000   7.599   0.000  -0.000  14.175   0.000  -0.000
  0.000   0.000   0.000   7.599   0.000   0.000  14.175   0.000
 -0.000  -0.000  -0.000   0.000   7.599  -0.000   0.000  14.175
 total augmentation occupancy for first ion, spin component:           1
 10.986  -5.153  -0.000   0.000   0.000  -0.000  -0.000   0.000
 -5.153   2.467   0.000   0.000   0.000  -0.000   0.000  -0.000
 -0.000   0.000   3.935  -0.000  -0.000  -1.048   0.000  -0.000
  0.000   0.000   0.000   3.935   0.000   0.000  -1.048  -0.000
  0.000   0.000   0.000   0.000   3.935   0.000   0.000  -1.048
 -0.000  -0.000  -1.048   0.000  -0.000   0.285  -0.000   0.000
  0.000   0.000  -0.000  -1.048   0.000  -0.000   0.285  -0.000
  0.000  -0.000  -0.000   0.000  -1.048   0.000  -0.000   0.285


------------------------ aborting loop because EDIFF is reached ----------------------------------------


 


 total charge     
 
# of ion     s       p       d       tot
----------------------------------------
  1        0.758   0.966   0.000   1.724
  2        0.758   0.966   0.000   1.724
------------------------------------------------
tot        1.516   1.931   0.000   3.448
 
    FORLOC:  cpu time    0.00: real time    0.00
    FORHF :  cpu time   33.40: real time   33.45
    FORNL :  cpu time    0.02: real time    0.02
    STRESS:  cpu time    1.15: real time    1.15
    FORCOR:  cpu time    0.15: real time    0.15
    OFIELD:  cpu time    0.00: real time    0.00

  FORCE on cell =-STRESS in cart. coord.  units (eV):
  Direction    XX          YY          ZZ          XY          YZ          ZX
  --------------------------------------------------------------------------------------
  Alpha Z     3.36229     3.36229     3.36229
  Ewald     -76.17385   -76.17385   -76.17385     0.00000     0.00000    -0.00000
  Hartree     5.00909     5.00909     5.00909     0.00000    -0.00000    -0.00000
  E(xc)     -19.63170   -19.63170   -19.63170    -0.00000     0.00000     0.00000
  Local     -29.11894   -29.11894   -29.11894     0.00001    -0.00001    -0.00001
  n-local    70.69047    76.02348    75.22364    -1.09459    -2.23951    -0.72252
  augment   -10.68877   -10.68877   -10.68877    -0.00001     0.00001     0.00001
  Kinetic    54.78519    56.59743    58.39722    -1.07018    -3.46637    -1.00826
  Fock            NaN         NaN         NaN         NaN         NaN         NaN
  -------------------------------------------------------------------------------------
  Total           NaN         NaN         NaN         NaN         NaN         NaN
  in kB           NaN         NaN         NaN         NaN         NaN         NaN
  external pressure =         NaN kB  Pullay stress =        0.00 kB


 VOLUME and BASIS-vectors are now :
 -----------------------------------------------------------------------------
  energy-cutoff  :      500.00
  volume of cell :       40.05
      direct lattice vectors                 reciprocal lattice vectors
     2.715500000  2.715500000  0.000000000     0.184128153  0.184128153  0.184128153
     2.715500000  0.000000000 -2.715500000     0.184128153 -0.184128153 -0.184128153
     0.000000000  2.715500000 -2.715500000    -0.184128153  0.184128153 -0.184128153

  length of vectors
     3.840296929  3.840296929  3.840296929     0.318919316  0.318919316  0.318919316


 FORCES acting on ions:
    Electron-Ion                     Ewald-Force                    Non-Local-Force
 -----------------------------------------------------------------------------------------------
   -.759E-08 -.476E-08 0.476E-08   -.234E-14 -.182E-14 0.397E-14   -.121E-16 -.278E-16 0.486E-16
   0.759E-08 0.476E-08 -.476E-08   0.175E-14 0.186E-14 -.406E-14   0.694E-17 0.208E-16 -.555E-16
 -----------------------------------------------------------------------------------------------
   -.139E-06 -.419E-07 0.204E-06   -.584E-15 0.335E-16 -.952E-16   -.520E-17 -.694E-17 -.694E-17
 
 
 POSITION                                       TOTAL-FORCE (eV/Angst)
 -----------------------------------------------------------------------------------
      0.00000      0.00000      0.00000              NaN           NaN           NaN
      1.35775      1.35775     -1.35775              NaN           NaN           NaN
 -----------------------------------------------------------------------------------
    total drift:                                     NaN           NaN           NaN


--------------------------------------------------------------------------------------------------------



  FREE ENERGIE OF THE ION-ELECTRON SYSTEM (eV)
  ---------------------------------------------------
  free  energy   TOTEN  =       -12.53709872 eV

  energy  without entropy=      -12.53709872  energy(sigma->0) =      -12.53709872
 


--------------------------------------------------------------------------------------------------------


    POTLOK:  cpu time    0.25: real time    0.25


--------------------------------------------------------------------------------------------------------




--------------------------------------------------------------------------------------------------------


  
 reached required accuracy - stopping structural energy minimisation
 writing wavefunctions
     LOOP+:  cpu time  292.87: real time  293.63
    4ORBIT:  cpu time    0.00: real time    0.00
 


 total charge     
 
# of ion     s       p       d       tot
----------------------------------------
  1        0.758   0.966   0.000   1.724
  2        0.758   0.966   0.000   1.724
------------------------------------------------
tot        1.516   1.931   0.000   3.448
 

 total amount of memory used by VASP on root node   135065. kBytes
========================================================================

   base      :      30000. kBytes
   nonl-proj :      39616. kBytes
   fftplans  :       1619. kBytes
   grid      :       3048. kBytes
   one-center:          6. kBytes
   HF        :          4. kBytes
   nonlr-proj:        481. kBytes
   wavefun   :      60291. kBytes
 
  
  
 General timing and accounting informations for this job:
 ========================================================
  
                  Total CPU time used (sec):      512.739
                            User time (sec):      511.672
                          System time (sec):        1.067
                         Elapsed time (sec):      514.344
  
                   Maximum memory used (kb):      355780.
                   Average memory used (kb):           0.
  
                          Minor page faults:       311061
                          Major page faults:            1
                 Voluntary context switches:        12192
