    8    8    1    1
  0.2002677E+02  0.5435300E-09  0.5435300E-09  0.6646963E-09  0.5000000E-15
  1.000000000000000E-004
  CAR 
 Name                                    
     84     51     52
 
  0.0000000E+00  0.0000000E+00  0.0000000E+00  0.6944444E-02
    1      -64.305885
    2      -64.251058
    3      -64.251053
    4      -64.228357
    5      -64.228353
    6      -64.221807
    7      -17.520568
    8      -17.516726
    9      -17.516725
   10      -17.430703
   11      -17.425041
   12       -9.888483
   13       -8.335491
   14       -8.324675
   15       -8.324675
   16       -3.461778
   17       -2.496176
   18       -2.422786
   19       -2.420229
   20       -2.420228
   21       -2.322764
   22       -1.051428
   23       -0.411581
   24       -0.306788
   25        0.133573
   26        0.133574
   27        0.175117
   28        0.895740
   29        0.895741
   30        1.386915
   31        1.386919
   32        1.404717
   33        2.548263
   34        2.595902
   35        2.792796
   36        3.039837
   37        3.054597
   38        3.054607
   39        3.217025
   40        4.583113
   41        4.583121
   42        4.660927
   43        4.845265
   44        6.556708
   45        7.409967
   46        8.375099
   47        8.375104
   48        9.484769
   49        9.560945
   50        9.813379
   51        9.813384
   52       10.239165
 
  0.1666667E+00  0.0000000E+00  0.1387779E-16  0.2777778E-01
    1      -64.305885
    2      -64.251084
    3      -64.251013
    4      -64.228387
    5      -64.228315
    6      -64.221807
    7      -17.520694
    8      -17.516849
    9      -17.516715
   10      -17.430556
   11      -17.424973
   12       -9.795561
   13       -8.409117
   14       -8.367141
   15       -8.353360
   16       -3.413757
   17       -2.469412
   18       -2.450639
   19       -2.427900
   20       -2.412055
   21       -2.308486
   22       -1.099865
   23       -0.550972
   24       -0.309206
   25       -0.008245
   26        0.307929
   27        0.465463
   28        0.810341
   29        0.905402
   30        1.284526
   31        1.360071
   32        1.485980
   33        2.589707
   34        2.679477
   35        2.814027
   36        2.930205
   37        3.001823
   38        3.177772
   39        3.289948
   40        3.967727
   41        4.365242
   42        4.547818
   43        5.584157
   44        6.968218
   45        7.623530
   46        8.120620
   47        8.224216
   48        9.227145
   49        9.707993
   50        9.828148
   51        9.958931
   52       10.213961
 
  0.3333333E+00  0.0000000E+00  0.0000000E+00  0.2777778E-01
    1      -64.305907
    2      -64.251187
    3      -64.251109
    4      -64.228490
    5      -64.228411
    6      -64.221829
    7      -17.520956
    8      -17.517092
    9      -17.516702
   10      -17.430271
   11      -17.424828
   12       -9.544829
   13       -8.658290
   14       -8.435709
   15       -8.394503
   16       -3.317539
   17       -2.492410
   18       -2.459085
   19       -2.410961
   20       -2.393252
   21       -2.277743
   22       -1.105695
   23       -0.636117
   24       -0.324775
   25        0.123443
   26        0.241095
   27        0.483137
   28        0.705212
   29        0.944593
   30        1.225742
   31        1.351233
   32        1.580722
   33        2.710620
   34        2.770306
   35        2.843356
   36        2.899638
   37        3.024675
   38        3.262876
   39        3.386414
   40        3.671583
   41        3.907271
   42        4.319722
   43        6.154264
   44        7.567884
   45        7.879485
   46        8.001361
   47        8.515683
   48        9.272088
   49        9.762636
   50        9.808145
   51       10.395527
   52       10.498843
 
  0.5000000E+00  0.0000000E+00  0.0000000E+00  0.2777778E-01
    1      -64.305940
    2      -64.251141
    3      -64.251076
    4      -64.228447
    5      -64.228378
    6      -64.221861
    7      -17.521076
    8      -17.517211
    9      -17.516687
   10      -17.430124
   11      -17.424750
   12       -9.317946
   13       -8.890721
   14       -8.466307
   15       -8.414348
   16       -3.269889
   17       -2.504614
   18       -2.469269
   19       -2.398114
   20       -2.378646
   21       -2.259726
   22       -1.043554
   23       -0.656419
   24       -0.294454
   25       -0.031046
   26        0.287382
   27        0.358942
   28        0.829733
   29        1.000567
   30        1.138416
   31        1.353327
   32        1.582220
   33        2.735225
   34        2.765755
   35        2.859644
   36        2.964671
   37        3.059641
   38        3.372976
   39        3.492265
   40        3.553330
   41        3.624698
   42        4.153890
   43        6.359305
   44        7.739635
   45        7.896126
   46        8.795848
   47        8.861760
   48        9.166259
   49        9.629114
   50        9.925308
   51       10.198663
   52       10.685555
 
  0.1666667E+00  0.1666667E+00  0.2775558E-16  0.1388889E-01
    1      -64.305846
    2      -64.251097
    3      -64.251040
    4      -64.228398
    5      -64.228343
    6      -64.221768
    7      -17.520845
    8      -17.516826
    9      -17.516800
   10      -17.430408
   11      -17.424902
   12       -9.673146
   13       -8.491999
   14       -8.412561
   15       -8.406579
   16       -3.401198
   17       -2.475431
   18       -2.463023
   19       -2.410927
   20       -2.397245
   21       -2.284739
   22       -1.200134
   23       -0.685203
   24       -0.148845
   25        0.116465
   26        0.226035
   27        0.568774
   28        0.816436
   29        0.943544
   30        1.210452
   31        1.433340
   32        1.491589
   33        2.620445
   34        2.756546
   35        2.839170
   36        2.908378
   37        3.035984
   38        3.203636
   39        3.327214
   40        3.688854
   41        4.389250
   42        4.437100
   43        5.709736
   44        7.217813
   45        7.485129
   46        7.778850
   47        8.246494
   48        9.323774
   49        9.667544
   50        9.881354
   51       10.072170
   52       10.209033
 
  0.3333333E+00  0.1666667E+00  0.0000000E+00  0.2777778E-01
    1      -64.305918
    2      -64.251156
    3      -64.251078
    4      -64.228460
    5      -64.228381
    6      -64.221839
    7      -17.521124
    8      -17.517068
    9      -17.516802
   10      -17.430110
   11      -17.424771
   12       -9.420788
   13       -8.696922
   14       -8.511398
   15       -8.432024
   16       -3.355287
   17       -2.516013
   18       -2.464298
   19       -2.395050
   20       -2.368708
   21       -2.262489
   22       -1.220858
   23       -0.820676
   24       -0.279014
   25        0.056516
   26        0.386884
   27        0.623739
   28        0.860759
   29        0.908241
   30        1.235484
   31        1.455570
   32        1.537728
   33        2.678308
   34        2.778832
   35        2.870865
   36        2.923902
   37        3.096838
   38        3.347903
   39        3.389123
   40        3.615623
   41        4.026647
   42        4.276363
   43        5.954839
   44        7.399548
   45        7.676278
   46        7.993750
   47        8.533780
   48        9.539617
   49        9.839289
   50       10.035608
   51       10.300121
   52       10.501893
 
  0.5000000E+00  0.1666667E+00  0.0000000E+00  0.2777778E-01
    1      -64.305907
    2      -64.251150
    3      -64.251078
    4      -64.228456
    5      -64.228381
    6      -64.221827
    7      -17.521248
    8      -17.517224
    9      -17.516814
   10      -17.429959
   11      -17.424702
   12       -9.283441
   13       -8.836600
   14       -8.542833
   15       -8.412540
   16       -3.327678
   17       -2.505424
   18       -2.461290
   19       -2.401047
   20       -2.362609
   21       -2.283279
   22       -1.229201
   23       -0.882284
   24       -0.365142
   25       -0.060054
   26        0.445925
   27        0.626739
   28        0.833108
   29        0.988974
   30        1.276768
   31        1.411607
   32        1.595079
   33        2.721310
   34        2.772807
   35        2.838860
   36        2.897715
   37        3.235377
   38        3.339863
   39        3.546977
   40        3.601821
   41        3.867909
   42        4.075714
   43        6.141567
   44        7.593215
   45        7.906817
   46        8.563549
   47        8.840112
   48        9.315458
   49        9.556773
   50        9.859379
   51       10.438643
   52       10.713634
 
 -0.3333333E+00  0.1666667E+00  0.0000000E+00  0.1388889E-01
    1      -64.305874
    2      -64.251156
    3      -64.251075
    4      -64.228459
    5      -64.228379
    6      -64.221794
    7      -17.521100
    8      -17.517128
    9      -17.516838
   10      -17.430100
   11      -17.424780
   12       -9.529854
   13       -8.621504
   14       -8.492354
   15       -8.365913
   16       -3.346672
   17       -2.471150
   18       -2.459110
   19       -2.431433
   20       -2.375396
   21       -2.309246
   22       -1.311877
   23       -0.831050
   24       -0.250982
   25       -0.073919
   26        0.348087
   27        0.668726
   28        0.788034
   29        0.954249
   30        1.240338
   31        1.419076
   32        1.637421
   33        2.709079
   34        2.778876
   35        2.841778
   36        2.901228
   37        3.107110
   38        3.230497
   39        3.489103
   40        3.607900
   41        4.108568
   42        4.254360
   43        6.036117
   44        7.650494
   45        7.817721
   46        8.023010
   47        8.712200
   48        9.265069
   49        9.612843
   50       10.015055
   51       10.420600
   52       10.582578
 
 -0.1666667E+00  0.1666667E+00  0.0000000E+00  0.1388889E-01
    1      -64.305849
    2      -64.251095
    3      -64.251074
    4      -64.228398
    5      -64.228375
    6      -64.221772
    7      -17.520825
    8      -17.516915
    9      -17.516819
   10      -17.430399
   11      -17.424912
   12       -9.742528
   13       -8.455659
   14       -8.402725
   15       -8.335142
   16       -3.386401
   17       -2.485549
   18       -2.449030
   19       -2.433102
   20       -2.394208
   21       -2.315981
   22       -1.204586
   23       -0.701198
   24       -0.238098
   25       -0.028394
   26        0.189683
   27        0.674928
   28        0.822061
   29        0.942865
   30        1.156115
   31        1.440480
   32        1.529572
   33        2.630242
   34        2.714486
   35        2.841808
   36        2.876235
   37        2.979343
   38        3.245367
   39        3.373624
   40        3.756029
   41        4.343498
   42        4.521770
   43        5.697167
   44        7.122130
   45        7.838992
   46        8.255245
   47        8.406906
   48        9.233154
   49        9.576695
   50        9.923693
   51       10.086280
   52       10.162817
 
  0.1666667E+00  0.3333333E+00  0.0000000E+00  0.2777778E-01
    1      -64.305918
    2      -64.251156
    3      -64.251078
    4      -64.228460
    5      -64.228381
    6      -64.221839
    7      -17.521124
    8      -17.517068
    9      -17.516802
   10      -17.430110
   11      -17.424771
   12       -9.420785
   13       -8.697005
   14       -8.511158
   15       -8.432184
   16       -3.355704
   17       -2.510152
   18       -2.477744
   19       -2.392241
   20       -2.365836
   21       -2.255604
   22       -1.223502
   23       -0.858228
   24       -0.217068
   25        0.108122
   26        0.346132
   27        0.524472
   28        0.827487
   29        1.015602
   30        1.236991
   31        1.429471
   32        1.548610
   33        2.701258
   34        2.767891
   35        2.863479
   36        2.922519
   37        3.167468
   38        3.226553
   39        3.439922
   40        3.599651
   41        4.037026
   42        4.282256
   43        5.947900
   44        7.413796
   45        7.659872
   46        7.985952
   47        8.638843
   48        9.324451
   49        9.915886
   50       10.026804
   51       10.352199
   52       10.512005
 
  0.3333333E+00  0.3333333E+00  0.0000000E+00  0.1388889E-01
    1      -64.305867
    2      -64.251143
    3      -64.251087
    4      -64.228449
    5      -64.228392
    6      -64.221787
    7      -17.521440
    8      -17.517167
    9      -17.516960
   10      -17.429792
   11      -17.424653
   12       -9.230830
   13       -8.709319
   14       -8.578411
   15       -8.552785
   16       -3.406350
   17       -2.528329
   18       -2.484619
   19       -2.362472
   20       -2.355204
   21       -2.263099
   22       -1.388596
   23       -1.020510
   24       -0.692316
   25        0.372175
   26        0.582666
   27        0.694450
   28        0.850454
   29        1.048691
   30        1.295345
   31        1.483781
   32        1.585315
   33        2.689808
   34        2.755886
   35        2.874030
   36        2.932587
   37        3.193255
   38        3.451706
   39        3.614848
   40        3.707377
   41        4.105003
   42        4.146529
   43        5.704450
   44        7.302811
   45        7.924358
   46        8.102014
   47        8.619565
   48        9.409982
   49        9.730880
   50       10.305454
   51       10.346136
   52       10.676486
 
  0.5000000E+00  0.3333333E+00 -0.5551115E-16  0.2777778E-01
    1      -64.305912
    2      -64.251154
    3      -64.251119
    4      -64.228458
    5      -64.228425
    6      -64.221831
    7      -17.521592
    8      -17.517343
    9      -17.516974
   10      -17.429636
   11      -17.424605
   12       -9.192549
   13       -8.732500
   14       -8.617902
   15       -8.504829
   16       -3.435033
   17       -2.500300
   18       -2.468315
   19       -2.375982
   20       -2.346280
   21       -2.325138
   22       -1.578634
   23       -1.062212
   24       -0.628507
   25        0.008187
   26        0.682663
   27        0.867072
   28        0.972452
   29        1.051779
   30        1.371204
   31        1.448087
   32        1.655278
   33        2.729598
   34        2.761717
   35        2.869053
   36        2.899564
   37        3.253640
   38        3.505271
   39        3.707370
   40        3.787652
   41        4.019255
   42        4.159991
   43        5.705702
   44        7.232569
   45        7.905186
   46        8.463157
   47        8.964732
   48        9.119266
   49        9.725575
   50       10.185820
   51       10.420454
   52       10.616358
 
 -0.3333333E+00  0.3333333E+00  0.0000000E+00  0.1388889E-01
    1      -64.305904
    2      -64.251140
    3      -64.251093
    4      -64.228442
    5      -64.228400
    6      -64.221824
    7      -17.521420
    8      -17.517280
    9      -17.516952
   10      -17.429786
   11      -17.424674
   12       -9.378941
   13       -8.673701
   14       -8.549918
   15       -8.411471
   16       -3.407154
   17       -2.501863
   18       -2.436908
   19       -2.417352
   20       -2.357109
   21       -2.325597
   22       -1.595331
   23       -0.938004
   24       -0.419192
   25       -0.222723
   26        0.653035
   27        0.825189
   28        0.968151
   29        1.044334
   30        1.272301
   31        1.486296
   32        1.643374
   33        2.728248
   34        2.784470
   35        2.809410
   36        2.927873
   37        3.290619
   38        3.368161
   39        3.477704
   40        3.661102
   41        4.021546
   42        4.356773
   43        5.883571
   44        7.534642
   45        7.701097
   46        8.290321
   47        8.635382
   48        9.359204
   49        9.814829
   50       10.161841
   51       10.210550
   52       10.572844
 
 -0.1666667E+00  0.3333333E+00  0.0000000E+00  0.1388889E-01
    1      -64.305874
    2      -64.251156
    3      -64.251075
    4      -64.228459
    5      -64.228379
    6      -64.221794
    7      -17.521100
    8      -17.517133
    9      -17.516833
   10      -17.430100
   11      -17.424780
   12       -9.529802
   13       -8.621662
   14       -8.492202
   15       -8.366028
   16       -3.338779
   17       -2.510253
   18       -2.451036
   19       -2.418317
   20       -2.380118
   21       -2.301089
   22       -1.321474
   23       -0.771726
   24       -0.344994
   25       -0.047573
   26        0.369230
   27        0.712477
   28        0.810392
   29        0.942043
   30        1.181248
   31        1.483083
   32        1.571248
   33        2.684348
   34        2.779498
   35        2.832676
   36        2.959702
   37        3.056130
   38        3.285641
   39        3.421424
   40        3.664346
   41        4.114540
   42        4.238561
   43        6.050021
   44        7.698182
   45        7.787379
   46        7.998136
   47        8.608936
   48        9.345345
   49        9.654148
   50       10.194766
   51       10.275400
   52       10.570810
 
  0.1666667E+00  0.5000000E+00  0.0000000E+00  0.2777778E-01
    1      -64.305907
    2      -64.251150
    3      -64.251078
    4      -64.228456
    5      -64.228381
    6      -64.221827
    7      -17.521247
    8      -17.517228
    9      -17.516810
   10      -17.429959
   11      -17.424702
   12       -9.283293
   13       -8.836867
   14       -8.542705
   15       -8.412610
   16       -3.320716
   17       -2.526469
   18       -2.467248
   19       -2.392933
   20       -2.362447
   21       -2.272320
   22       -1.255614
   23       -0.846778
   24       -0.414901
   25        0.054469
   26        0.338182
   27        0.681294
   28        0.862740
   29        0.951880
   30        1.258968
   31        1.448034
   32        1.553942
   33        2.712438
   34        2.762509
   35        2.841462
   36        2.946815
   37        3.195418
   38        3.379115
   39        3.447959
   40        3.681421
   41        3.847656
   42        4.094684
   43        6.148787
   44        7.595997
   45        7.892823
   46        8.582282
   47        8.810339
   48        9.324095
   49        9.552656
   50        9.904110
   51       10.392999
   52       10.707728
 
  0.3333333E+00  0.5000000E+00 -0.5551115E-16  0.2777778E-01
    1      -64.305912
    2      -64.251154
    3      -64.251118
    4      -64.228458
    5      -64.228425
    6      -64.221832
    7      -17.521591
    8      -17.517347
    9      -17.516970
   10      -17.429636
   11      -17.424606
   12       -9.192338
   13       -8.733361
   14       -8.617141
   15       -8.505000
   16       -3.429441
   17       -2.534454
   18       -2.457210
   19       -2.367672
   20       -2.348625
   21       -2.312433
   22       -1.589198
   23       -1.058315
   24       -0.643163
   25        0.083858
   26        0.586463
   27        0.900699
   28        0.959295
   29        1.104512
   30        1.354386
   31        1.452073
   32        1.624983
   33        2.715340
   34        2.768872
   35        2.817462
   36        2.997839
   37        3.316674
   38        3.373211
   39        3.646422
   40        3.874867
   41        4.036706
   42        4.155110
   43        5.716140
   44        7.231703
   45        7.925351
   46        8.410845
   47        8.857079
   48        9.294588
   49        9.722950
   50       10.203678
   51       10.353680
   52       10.565620
 
  0.5000000E+00  0.5000000E+00  0.0000000E+00  0.1388889E-01
    1      -64.305863
    2      -64.251162
    3      -64.250987
    4      -64.228467
    5      -64.228293
    6      -64.221784
    7      -17.521756
    8      -17.517452
    9      -17.516993
   10      -17.429474
   11      -17.424550
   12       -9.130780
   13       -8.668474
   14       -8.621554
   15       -8.612829
   16       -3.486562
   17       -2.515831
   18       -2.434422
   19       -2.379797
   20       -2.348013
   21       -2.341299
   22       -1.755982
   23       -1.092473
   24       -0.683442
   25        0.214509
   26        0.336733
   27        0.974865
   28        1.033900
   29        1.235881
   30        1.387578
   31        1.469777
   32        1.665310
   33        2.736106
   34        2.784134
   35        2.867423
   36        2.981217
   37        3.329058
   38        3.413510
   39        3.852133
   40        3.971752
   41        4.160734
   42        4.238021
   43        5.379126
   44        6.862801
   45        7.731178
   46        8.740526
   47        8.924684
   48        9.543396
   49        9.695386
   50       10.268430
   51       10.428478
   52       10.537550
 
  0.0000000E+00  0.0000000E+00  0.2500000E+00  0.1388889E-01
    1      -64.305952
    2      -64.251016
    3      -64.251011
    4      -64.228319
    5      -64.228315
    6      -64.221874
    7      -17.520635
    8      -17.516591
    9      -17.516590
   10      -17.430727
   11      -17.425021
   12       -9.721944
   13       -8.603962
   14       -8.332350
   15       -8.332350
   16       -3.493771
   17       -2.478911
   18       -2.441604
   19       -2.441603
   20       -2.381910
   21       -2.234644
   22       -1.216534
   23       -0.431314
   24        0.042315
   25        0.298694
   26        0.298695
   27        0.503440
   28        0.913659
   29        0.913660
   30        1.181329
   31        1.395016
   32        1.395019
   33        2.455796
   34        2.729098
   35        2.857317
   36        2.885979
   37        3.207157
   38        3.225596
   39        3.225606
   40        3.927845
   41        4.225730
   42        4.225738
   43        5.845432
   44        6.745749
   45        7.378429
   46        7.378432
   47        7.553883
   48        8.493626
   49        8.996337
   50        9.328224
   51       10.229353
   52       10.229358
 
  0.1666667E+00  0.0000000E+00  0.2500000E+00  0.2777778E-01
    1      -64.305848
    2      -64.251080
    3      -64.251025
    4      -64.228382
    5      -64.228327
    6      -64.221772
    7      -17.520716
    8      -17.516802
    9      -17.516673
   10      -17.430563
   11      -17.424961
   12       -9.741295
   13       -8.467263
   14       -8.404896
   15       -8.350702
   16       -3.425883
   17       -2.471445
   18       -2.437015
   19       -2.427482
   20       -2.409654
   21       -2.285245
   22       -1.134076
   23       -0.518459
   24       -0.273083
   25        0.121652
   26        0.332772
   27        0.522759
   28        0.788556
   29        0.906092
   30        1.271606
   31        1.362848
   32        1.455677
   33        2.568938
   34        2.731435
   35        2.822109
   36        2.917622
   37        3.050180
   38        3.174769
   39        3.281256
   40        3.847539
   41        4.238637
   42        4.553626
   43        5.711896
   44        7.038053
   45        7.475289
   46        7.873172
   47        7.961209
   48        9.060715
   49        9.559216
   50        9.763409
   51        9.896899
   52       10.163677
 
  0.3333333E+00  0.0000000E+00  0.2500000E+00  0.2777778E-01
    1      -64.305839
    2      -64.251142
    3      -64.251085
    4      -64.228446
    5      -64.228385
    6      -64.221760
    7      -17.520940
    8      -17.517109
    9      -17.516718
   10      -17.430264
   11      -17.424828
   12       -9.590415
   13       -8.607159
   14       -8.465640
   15       -8.346270
   16       -3.307734
   17       -2.496881
   18       -2.457733
   19       -2.418416
   20       -2.394117
   21       -2.290816
   22       -1.126744
   23       -0.670636
   24       -0.254069
   25       -0.006010
   26        0.258757
   27        0.447241
   28        0.716959
   29        0.911537
   30        1.247269
   31        1.351337
   32        1.617665
   33        2.708759
   34        2.779598
   35        2.829024
   36        2.884658
   37        3.017752
   38        3.249054
   39        3.401423
   40        3.722856
   41        4.003118
   42        4.254717
   43        6.170694
   44        7.701999
   45        7.892062
   46        7.957314
   47        8.539707
   48        9.293662
   49        9.770181
   50       10.060183
   51       10.428392
   52       10.489958
 
  0.5000000E+00  0.0000000E+00  0.2500000E+00  0.2777778E-01
    1      -64.305925
    2      -64.251157
    3      -64.251061
    4      -64.228464
    5      -64.228360
    6      -64.221843
    7      -17.521080
    8      -17.517211
    9      -17.516686
   10      -17.430125
   11      -17.424750
   12       -9.335904
   13       -8.768045
   14       -8.662754
   15       -8.323263
   16       -3.268674
   17       -2.551008
   18       -2.449791
   19       -2.395663
   20       -2.361631
   21       -2.234552
   22       -1.112544
   23       -0.555186
   24       -0.274203
   25        0.036032
   26        0.134677
   27        0.480634
   28        0.576351
   29        0.928715
   30        1.313159
   31        1.364121
   32        1.609917
   33        2.732917
   34        2.765862
   35        2.843639
   36        2.985594
   37        3.108097
   38        3.167236
   39        3.353956
   40        3.688565
   41        3.916702
   42        4.130712
   43        6.330189
   44        7.341138
   45        7.826132
   46        8.629556
   47        8.903913
   48        9.544253
   49        9.873171
   50       10.219048
   51       10.520030
   52       10.765811
 
 -0.3333333E+00  0.0000000E+00  0.2500000E+00  0.2777778E-01
    1      -64.305933
    2      -64.251198
    3      -64.251066
    4      -64.228503
    5      -64.228367
    6      -64.221853
    7      -17.521002
    8      -17.516998
    9      -17.516600
   10      -17.430288
   11      -17.424811
   12       -9.297959
   13       -8.809544
   14       -8.679998
   15       -8.333812
   16       -3.344054
   17       -2.554387
   18       -2.454629
   19       -2.427391
   20       -2.342299
   21       -2.148214
   22       -1.094626
   23       -0.428979
   24       -0.228109
   25       -0.006296
   26        0.307273
   27        0.564029
   28        0.788252
   29        0.916032
   30        1.269747
   31        1.370861
   32        1.484054
   33        2.701035
   34        2.732038
   35        2.838629
   36        2.962534
   37        3.121630
   38        3.183649
   39        3.411426
   40        3.587367
   41        3.793018
   42        4.212117
   43        6.226711
   44        7.050297
   45        7.582791
   46        8.304379
   47        8.398379
   48        9.104265
   49        9.543491
   50        9.883262
   51       10.128221
   52       10.479351
 
 -0.1666667E+00  0.0000000E+00  0.2500000E+00  0.2777778E-01
    1      -64.305978
    2      -64.251086
    3      -64.251028
    4      -64.228391
    5      -64.228331
    6      -64.221900
    7      -17.520780
    8      -17.516687
    9      -17.516552
   10      -17.430582
   11      -17.424949
   12       -9.542453
   13       -8.743765
   14       -8.441943
   15       -8.339257
   16       -3.453126
   17       -2.513680
   18       -2.455659
   19       -2.449078
   20       -2.358698
   21       -2.160199
   22       -1.212994
   23       -0.398674
   24       -0.001957
   25        0.280070
   26        0.367268
   27        0.571209
   28        0.815399
   29        0.927727
   30        1.263854
   31        1.355647
   32        1.416016
   33        2.552876
   34        2.740298
   35        2.831554
   36        2.886599
   37        3.156391
   38        3.249213
   39        3.424829
   40        3.653099
   41        3.896785
   42        4.255933
   43        6.040219
   44        7.056366
   45        7.077651
   46        7.272343
   47        7.916920
   48        8.547855
   49        9.065364
   50        9.351976
   51       10.424148
   52       10.520471
 
  0.1666667E+00  0.1666667E+00  0.2500000E+00  0.1388889E-01
    1      -64.305881
    2      -64.251089
    3      -64.251069
    4      -64.228390
    5      -64.228372
    6      -64.221803
    7      -17.520830
    8      -17.516889
    9      -17.516816
   10      -17.430400
   11      -17.424913
   12       -9.724930
   13       -8.461230
   14       -8.404320
   15       -8.358597
   16       -3.390682
   17       -2.471926
   18       -2.453958
   19       -2.435320
   20       -2.395268
   21       -2.308821
   22       -1.202728
   23       -0.699509
   24       -0.215723
   25        0.014592
   26        0.197313
   27        0.650037
   28        0.813145
   29        0.945256
   30        1.172862
   31        1.439459
   32        1.518373
   33        2.625452
   34        2.729394
   35        2.839135
   36        2.887529
   37        2.996327
   38        3.229327
   39        3.356214
   40        3.733838
   41        4.388818
   42        4.487034
   43        5.689329
   44        7.146535
   45        7.728654
   46        8.116016
   47        8.331737
   48        9.290412
   49        9.625145
   50        9.925651
   51       10.088186
   52       10.215576
 
  0.3333333E+00  0.1666667E+00  0.2500000E+00  0.1388889E-01
    1      -64.305858
    2      -64.251157
    3      -64.251071
    4      -64.228460
    5      -64.228374
    6      -64.221779
    7      -17.521095
    8      -17.517148
    9      -17.516829
   10      -17.430101
   11      -17.424781
   12       -9.544409
   13       -8.604733
   14       -8.504268
   15       -8.348298
   16       -3.335677
   17       -2.518185
   18       -2.442849
   19       -2.423201
   20       -2.379623
   21       -2.304603
   22       -1.341357
   23       -0.727640
   24       -0.404241
   25       -0.070228
   26        0.389613
   27        0.756025
   28        0.792621
   29        0.936588
   30        1.165092
   31        1.483991
   32        1.579855
   33        2.688061
   34        2.779877
   35        2.813415