       N       E                     dE             d eps       ncg     rms          rms(c)
DAV:   1     0.958276146012E+03    0.95828E+03   -0.43797E+04  6264   0.195E+03
DAV:   2     0.987307469455E+02   -0.85955E+03   -0.83196E+03  5320   0.580E+02
DAV:   3    -0.293063689652E+02   -0.12804E+03   -0.12478E+03  5888   0.208E+02
DAV:   4    -0.380786197297E+02   -0.87723E+01   -0.86395E+01  6396   0.520E+01
DAV:   5    -0.383578352404E+02   -0.27922E+00   -0.27841E+00  6624   0.103E+01    0.192E+01
DAV:   6    -0.385452359326E+02   -0.18740E+00   -0.42934E+01  6828   0.724E+01    0.251E+01
DAV:   7    -0.359383542324E+02    0.26069E+01   -0.91807E+00  6436   0.462E+01    0.107E+01
DAV:   8    -0.358623381973E+02    0.76016E-01   -0.60572E+00  7392   0.265E+01    0.511E+00
DAV:   9    -0.357656873621E+02    0.96651E-01   -0.12804E+00  5852   0.121E+01    0.117E+00
DAV:  10    -0.357699606363E+02   -0.42733E-02   -0.71323E-02  6392   0.217E+00    0.767E-01
DAV:  11    -0.357706861997E+02   -0.72556E-03   -0.52087E-03  7120   0.577E-01    0.413E-01
DAV:  12    -0.357705670066E+02    0.11919E-03   -0.40738E-03  7212   0.959E-01    0.144E-01
DAV:  13    -0.357705378590E+02    0.29148E-04   -0.14511E-03  6928   0.549E-01    0.792E-02
DAV:  14    -0.357705017803E+02    0.36079E-04   -0.15455E-04  6648   0.114E-01    0.443E-02
DAV:  15    -0.357704954468E+02    0.63335E-05   -0.76130E-05  7704   0.827E-02    0.977E-03
DAV:  16    -0.357704969042E+02   -0.14574E-05   -0.11170E-05  6200   0.374E-02    0.597E-03
DAV:  17    -0.357704973921E+02   -0.48793E-06   -0.11933E-06  3580   0.134E-02
   1 F= -.35770497E+02 E0= -.35770497E+02  d E =-.159198E-17
