PROCAR new format
# of k-points:   51         # of bands:  52         # of ions:   8

 k-point    1 :    0.00000000 0.00000000 0.00000000     weight = 0.00694444

band   1 # energy  -64.30588547 # occ.  2.00000000
 
ion      s      p      d    tot
  1  0.000  0.000  0.000  0.000
  2  0.000  0.997  0.000  0.997
  3  0.000  0.000  0.000  0.000
  4  0.000  0.000  0.000  0.000
  5  0.000  0.000  0.000  0.000
  6  0.000  0.000  0.000  0.000
  7  0.000  0.000  0.000  0.000
  8  0.000  0.000  0.000  0.000
tot  0.000  0.997  0.000  0.997
 
band   2 # energy  -64.25105772 # occ.  2.00000000
 
ion      s      p      d    tot
  1  0.000  0.997  0.000  0.997
  2  0.000  0.000  0.000  0.000
  3  0.000  0.000  0.000  0.000
  4  0.000  0.000  0.000  0.000
  5  0.000  0.000  0.000  0.000
  6  0.000  0.000  0.000  0.000
  7  0.000  0.000  0.000  0.000
  8  0.000  0.000  0.000  0.000
tot  0.000  0.997  0.000  0.997
 
band   3 # energy  -64.25105299 # occ.  2.00000000
 
ion      s      p      d    tot
  1  0.000  0.997  0.000  0.997
  2  0.000  0.000  0.000  0.000
  3  0.000  0.000  0.000  0.000
  4  0.000  0.000  0.000  0.000
  5  0.000  0.000  0.000  0.000
  6  0.000  0.000  0.000  0.000
  7  0.000  0.000  0.000  0.000
  8  0.000  0.000  0.000  0.000
tot  0.000  0.997  0.000  0.997
 
band   4 # energy  -64.22835739 # occ.  2.00000000
 
ion      s      p      d    tot
  1  0.000  0.000  0.000  0.000
  2  0.000  0.997  0.000  0.997
  3  0.000  0.000  0.000  0.000
  4  0.000  0.000  0.000  0.000
  5  0.000  0.000  0.000  0.000
  6  0.000  0.000  0.000  0.000
  7  0.000  0.000  0.000  0.000
  8  0.000  0.000  0.000  0.000
tot  0.000  0.997  0.000  0.997
 
band   5 # energy  -64.22835259 # occ.  2.00000000
 
ion      s      p      d    tot
  1  0.000  0.000  0.000  0.000
  2  0.000  0.997  0.000  0.997
  3  0.000  0.000  0.000  0.000
  4  0.000  0.000  0.000  0.000
  5  0.000  0.000  0.000  0.000
  6  0.000  0.000  0.000  0.000
  7  0.000  0.000  0.000  0.000
  8  0.000  0.000  0.000  0.000
tot  0.000  0.997  0.000  0.997
 
band   6 # energy  -64.22180743 # occ.  2.00000000
 
ion      s      p      d    tot
  1  0.000  0.997  0.000  0.997
  2  0.000  0.000  0.000  0.000
  3  0.000  0.000  0.000  0.000
  4  0.000  0.000  0.000  0.000
  5  0.000  0.000  0.000  0.000
  6  0.000  0.000  0.000  0.000
  7  0.000  0.000  0.000  0.000
  8  0.000  0.000  0.000  0.000
tot  0.000  0.997  0.000  0.997
 
band   7 # energy  -17.52056838 # occ.  2.00000000
 
ion      s      p      d    tot
  1  0.000  0.000  0.000  0.000
  2  0.000  0.000  0.000  0.000
  3  0.000  0.000  0.000  0.000
  4  0.000  0.000  0.984  0.984
  5  0.001  0.000  0.000  0.001
  6  0.001  0.000  0.000  0.001
  7  0.001  0.000  0.000  0.001
  8  0.001  0.000  0.000  0.001
tot  0.003  0.002  0.984  0.989
 
band   8 # energy  -17.51672615 # occ.  2.00000000
 
ion      s      p      d    tot
  1  0.000  0.000  0.000  0.000
  2  0.000  0.000  0.000  0.000
  3  0.000  0.000  0.000  0.000
  4  0.000  0.000  0.984  0.984
  5  0.000  0.000  0.000  0.000
  6  0.000  0.000  0.000  0.000
  7  0.002  0.001  0.000  0.002
  8  0.002  0.001  0.000  0.002
tot  0.003  0.002  0.984  0.989
 
band   9 # energy  -17.51672544 # occ.  2.00000000
 
ion      s      p      d    tot
  1  0.000  0.000  0.000  0.000
  2  0.000  0.000  0.000  0.000
  3  0.000  0.000  0.000  0.000
  4  0.000  0.000  0.984  0.984
  5  0.002  0.001  0.000  0.002
  6  0.002  0.001  0.000  0.002
  7  0.000  0.000  0.000  0.000
  8  0.000  0.000  0.000  0.000
tot  0.003  0.002  0.984  0.989
 
band  10 # energy  -17.43070269 # occ.  2.00000000
 
ion      s      p      d    tot
  1  0.000  0.000  0.000  0.000
  2  0.000  0.000  0.000  0.000
  3  0.000  0.000  0.000  0.000
  4  0.000  0.000  0.991  0.991
  5  0.000  0.000  0.000  0.000
  6  0.000  0.000  0.000  0.000
  7  0.000  0.000  0.000  0.000
  8  0.000  0.000  0.000  0.000
tot  0.000  0.000  0.991  0.991
 
band  11 # energy  -17.42504084 # occ.  2.00000000
 
ion      s      p      d    tot
  1  0.000  0.000  0.000  0.000
  2  0.000  0.000  0.000  0.000
  3  0.000  0.000  0.000  0.000
  4  0.000  0.000  0.991  0.991
  5  0.000  0.000  0.000  0.000
  6  0.000  0.000  0.000  0.000
  7  0.000  0.000  0.000  0.000
  8  0.000  0.000  0.000  0.000
tot  0.000  0.000  0.991  0.991
 
band  12 # energy   -9.88848256 # occ.  2.00000000
 
ion      s      p      d    tot
  1  0.009  0.000  0.000  0.009
  2  0.008  0.000  0.000  0.008
  3  0.022  0.000  0.000  0.022
  4  0.086  0.000  0.000  0.086
  5  0.128  0.001  0.000  0.128
  6  0.128  0.001  0.000  0.128
  7  0.128  0.001  0.000  0.128
  8  0.128  0.001  0.000  0.128
tot  0.637  0.003  0.000  0.640
 
band  13 # energy   -8.33549069 # occ.  2.00000000
 
ion      s      p      d    tot
  1  0.000  0.003  0.004  0.007
  2  0.000  0.003  0.004  0.007
  3  0.000  0.009  0.013  0.021
  4  0.000  0.021  0.010  0.032
  5  0.162  0.000  0.000  0.162
  6  0.162  0.000  0.000  0.162
  7  0.162  0.000  0.000  0.162
  8  0.162  0.000  0.000  0.162
tot  0.648  0.037  0.031  0.716
 
band  14 # energy   -8.32467546 # occ.  2.00000000
 
ion      s      p      d    tot
  1  0.000  0.003  0.004  0.007
  2  0.000  0.003  0.004  0.007
  3  0.000  0.009  0.013  0.022
  4  0.000  0.021  0.011  0.032
  5  0.324  0.000  0.000  0.324
  6  0.324  0.000  0.000  0.324
  7  0.001  0.000  0.000  0.001
  8  0.001  0.000  0.000  0.001
tot  0.650  0.036  0.032  0.718
 
band  15 # energy   -8.32467533 # occ.  2.00000000
 
ion      s      p      d    tot
  1  0.000  0.003  0.004  0.007
  2  0.000  0.003  0.004  0.007
  3  0.000  0.009  0.013  0.022
  4  0.000  0.021  0.011  0.032
  5  0.001  0.000  0.000  0.001
  6  0.001  0.000  0.000  0.001
  7  0.324  0.000  0.000  0.324
  8  0.324  0.000  0.000  0.324
tot  0.650  0.036  0.032  0.718
 
band  16 # energy   -3.46177820 # occ.  2.00000000
 
ion      s      p      d    tot
  1  0.008  0.000  0.002  0.010
  2  0.004  0.000  0.004  0.008
  3  0.031  0.000  0.031  0.062
  4  0.383  0.000  0.000  0.383
  5  0.010  0.044  0.000  0.054
  6  0.010  0.044  0.000  0.054
  7  0.010  0.044  0.000  0.054
  8  0.010  0.044  0.000  0.054
tot  0.465  0.177  0.037  0.679
 
band  17 # energy   -2.49617571 # occ.  2.00000000
 
ion      s      p      d    tot
  1  0.000  0.000  0.001  0.001
  2  0.000  0.000  0.001  0.001
  3  0.000  0.001  0.875  0.875
  4  0.000  0.009  0.001  0.010
  5  0.001  0.010  0.000  0.010
  6  0.001  0.010  0.000  0.010
  7  0.001  0.010  0.000  0.010
  8  0.001  0.010  0.000  0.010
tot  0.003  0.048  0.877  0.928
 
band  18 # energy   -2.42278560 # occ.  2.00000000
 
ion      s      p      d    tot
  1  0.000  0.000  0.001  0.001
  2  0.000  0.001  0.002  0.003
  3  0.000  0.000  0.894  0.895
  4  0.000  0.001  0.000  0.001
  5  0.001  0.007  0.000  0.008
  6  0.001  0.007  0.000  0.008
  7  0.001  0.007  0.000  0.007
  8  0.001  0.007  0.000  0.008
tot  0.003  0.030  0.897  0.930
 
band  19 # energy   -2.42022910 # occ.  2.00000000
 
ion      s      p      d    tot
  1  0.000  0.000  0.002  0.002
  2  0.000  0.000  0.001  0.002
  3  0.000  0.001  0.903  0.904
  4  0.000  0.002  0.001  0.003
  5  0.003  0.015  0.000  0.018
  6  0.003  0.015  0.000  0.018
  7  0.000  0.001  0.000  0.001
  8  0.000  0.001  0.000  0.001
tot  0.007  0.035  0.907  0.949
 
band  20 # energy   -2.42022798 # occ.  2.00000000
 
ion      s      p      d    tot
  1  0.000  0.000  0.002  0.002
  2  0.000  0.000  0.001  0.002
  3  0.000  0.001  0.903  0.904
  4  0.000  0.002  0.001  0.003
  5  0.000  0.001  0.000  0.001
  6  0.000  0.001  0.000  0.001
  7  0.003  0.015  0.000  0.018
  8  0.003  0.015  0.000  0.018
tot  0.007  0.035  0.907  0.949
 
band  21 # energy   -2.32276413 # occ.  2.00000000
 
ion      s      p      d    tot
  1  0.001  0.000  0.000  0.001
  2  0.004  0.000  0.000  0.004
  3  0.002  0.000  0.878  0.880
  4  0.022  0.000  0.000  0.022
  5  0.001  0.006  0.000  0.006
  6  0.001  0.006  0.000  0.006
  7  0.001  0.006  0.000  0.006
  8  0.001  0.006  0.000  0.006
tot  0.030  0.023  0.878  0.932
 
band  22 # energy   -1.05142776 # occ.  2.00000000
 
ion      s      p      d    tot
  1  0.011  0.000  0.012  0.023
  2  0.039  0.000  0.000  0.039
  3  0.168  0.000  0.002  0.170
  4  0.011  0.000  0.003  0.013
  5  0.002  0.074  0.000  0.076
  6  0.002  0.074  0.000  0.076
  7  0.002  0.074  0.000  0.076
  8  0.002  0.074  0.000  0.076
tot  0.235  0.296  0.017  0.549
 
band  23 # energy   -0.41158141 # occ.  2.00000000
 
ion      s      p      d    tot
  1  0.078  0.000  0.001  0.079
  2  0.047  0.000  0.002  0.048
  3  0.013  0.000  0.060  0.073
  4  0.000  0.000  0.004  0.004
  5  0.000  0.079  0.000  0.079
  6  0.000  0.079  0.000  0.079
  7  0.000  0.079  0.000  0.079
  8  0.000  0.079  0.000  0.079
tot  0.138  0.315  0.066  0.520
 
band  24 # energy   -0.30678838 # occ.  2.00000000
 
ion      s      p      d    tot
  1  0.000  0.000  0.047  0.048
  2  0.000  0.012  0.023  0.035
  3  0.000  0.000  0.093  0.093
  4  0.000  0.104  0.004  0.107
  5  0.001  0.077  0.000  0.078
  6  0.001  0.077  0.000  0.078
  7  0.001  0.077  0.000  0.078
  8  0.001  0.077  0.000  0.078
tot  0.004  0.423  0.167  0.594
 
band  25 # energy    0.13357307 # occ.  2.00000000
 
ion      s      p      d    tot
  1  0.000  0.009  0.011  0.020
  2  0.000  0.001  0.006  0.007
  3  0.000  0.024  0.005  0.029
  4  0.000  0.150  0.004  0.154
  5  0.001  0.073  0.000  0.074
  6  0.001  0.073  0.000  0.074
  7  0.001  0.104  0.000  0.105
  8  0.001  0.104  0.000  0.105
tot  0.004  0.538  0.027  0.568
 
band  26 # energy    0.13357382 # occ.  2.00000000
 
ion      s      p      d    tot
  1  0.000  0.009  0.011  0.020
  2  0.000  0.001  0.006  0.007
  3  0.000  0.024  0.005  0.029
  4  0.000  0.150  0.004  0.154
  5  0.001  0.104  0.000  0.105
  6  0.001  0.104  0.000  0.105
  7  0.001  0.073  0.000  0.074
  8  0.001  0.073  0.000  0.074
tot  0.004  0.538  0.027  0.568
 
band  27 # energy    0.17511737 # occ.  2.00000000
 
ion      s      p      d    tot
  1  0.000  0.014  0.061  0.076
  2  0.000  0.001  0.066  0.067
  3  0.000  0.035  0.020  0.054
  4  0.000  0.000  0.010  0.010
  5  0.000  0.083  0.000  0.083
  6  0.000  0.083  0.000  0.083
  7  0.000  0.083  0.000  0.083
  8  0.000  0.083  0.000  0.083
tot  0.000  0.383  0.157  0.539
 
band  28 # energy    0.89573976 # occ.  2.00000000
 
ion      s      p      d    tot
  1  0.000  0.010  0.041  0.050
  2  0.000  0.019  0.141  0.160
  3  0.000  0.015  0.001  0.016
  4  0.000  0.004  0.002  0.006
  5  0.000  0.078  0.000  0.078
  6  0.000  0.078  0.000  0.078
  7  0.000  0.112  0.000  0.112
  8  0.000  0.112  0.000  0.112
tot  0.000  0.427  0.185  0.612
 
band  29 # energy    0.89574071 # occ.  2.00000000
 
ion      s      p      d    tot
  1  0.000  0.010  0.041  0.050
  2  0.000  0.019  0.141  0.160
  3  0.000  0.015  0.001  0.016
  4  0.000  0.004  0.002  0.006
  5  0.000  0.112  0.000  0.112
  6  0.000  0.112  0.000  0.112
  7  0.000  0.078  0.000  0.078
  8  0.000  0.078  0.000  0.078
tot  0.000  0.427  0.185  0.612
 
band  30 # energy    1.38691530 # occ.  2.00000000
 
ion      s      p      d    tot
  1  0.000  0.001  0.248  0.250
  2  0.000  0.001  0.130  0.132
  3  0.000  0.024  0.042  0.066
  4  0.000  0.001  0.005  0.006
  5  0.000  0.103  0.000  0.104
  6  0.000  0.103  0.000  0.104
  7  0.000  0.030  0.000  0.030
  8  0.000  0.030  0.000  0.030
tot  0.001  0.294  0.427  0.721
 
band  31 # energy    1.38691922 # occ.  2.00000000
 
ion      s      p      d    tot
  1  0.000  0.001  0.248  0.250
  2  0.000  0.001  0.130  0.132
  3  0.000  0.024  0.042  0.066
  4  0.000  0.001  0.005  0.006
  5  0.000  0.030  0.000  0.030
  6  0.000  0.030  0.000  0.030
  7  0.000  0.103  0.000  0.104
  8  0.000  0.103  0.000  0.104
tot  0.001  0.294  0.427  0.721
 
band  32 # energy    1.40471732 # occ.  2.00000000
 
ion      s      p      d    tot
  1  0.000  0.000  0.191  0.191
  2  0.000  0.001  0.233  0.234
  3  0.000  0.010  0.041  0.051
  4  0.000  0.006  0.009  0.015
  5  0.000  0.064  0.000  0.064
  6  0.000  0.064  0.000  0.064
  7  0.000  0.064  0.000  0.064
  8  0.000  0.064  0.000  0.064
tot  0.001  0.273  0.474  0.747
 
band  33 # energy    2.54826320 # occ.  2.00000000
 
ion      s      p      d    tot
  1  0.001  0.000  0.080  0.081
  2  0.003  0.000  0.726  0.729
  3  0.005  0.000  0.000  0.005
  4  0.034  0.000  0.000  0.034
  5  0.001  0.003  0.000  0.005
  6  0.001  0.003  0.000  0.005
  7  0.001  0.003  0.000  0.005
  8  0.001  0.003  0.000  0.005
tot  0.047  0.014  0.806  0.867
 
band  34 # energy    2.59590168 # occ.  2.00000000
 
ion      s      p      d    tot
  1  0.000  0.001  0.437  0.438
  2  0.000  0.001  0.399  0.399
  3  0.000  0.002  0.000  0.002
  4  0.000  0.007  0.000  0.007
  5  0.000  0.000  0.000  0.000
  6  0.000  0.000  0.000  0.000
  7  0.000  0.000  0.000  0.000
  8  0.000  0.000  0.000  0.000
tot  0.000  0.010  0.837  0.847
 
band  35 # energy    2.79279584 # occ.  2.00000000
 
ion      s      p      d    tot
  1  0.000  0.000  0.781  0.781
  2  0.003  0.000  0.107  0.110
  3  0.010  0.000  0.000  0.010
  4  0.000  0.000  0.000  0.000
  5  0.000  0.000  0.000  0.000
  6  0.000  0.000  0.000  0.000
  7  0.000  0.000  0.000  0.000
  8  0.000  0.000  0.000  0.000
tot  0.013  0.002  0.889  0.904
 
band  36 # energy    3.03983690 # occ.  2.00000000
 
ion      s      p      d    tot
  1  0.000  0.000  0.651  0.651
  2  0.000  0.002  0.196  0.198
  3  0.000  0.003  0.003  0.007
  4  0.000  0.013  0.002  0.015
  5  0.000  0.009  0.000  0.009
  6  0.000  0.009  0.000  0.009
  7  0.000  0.009  0.000  0.009
  8  0.000  0.009  0.000  0.009
tot  0.001  0.055  0.853  0.909
 
band  37 # energy    3.05459679 # occ.  2.00000000
 
ion      s      p      d    tot
  1  0.000  0.004  0.359  0.363
  2  0.000  0.005  0.400  0.405
  3  0.000  0.001  0.003  0.004
  4  0.000  0.001  0.002  0.003
  5  0.001  0.012  0.000  0.012
  6  0.001  0.012  0.000  0.012
  7  0.001  0.013  0.000  0.015
  8  0.001  0.013  0.000  0.015
tot  0.004  0.061  0.764  0.829
 
band  38 # energy    3.05460728 # occ.  2.00000000
 
ion      s      p      d    tot
  1  0.000  0.004  0.359  0.363
  2  0.000  0.005  0.400  0.405
  3  0.000  0.001  0.003  0.004
  4  0.000  0.001  0.002  0.003
  5  0.001  0.013  0.000  0.015
  6  0.001  0.013  0.000  0.015
  7  0.001  0.012  0.000  0.012
  8  0.001  0.012  0.000  0.012
tot  0.004  0.061  0.764  0.829
 
band  39 # energy    3.21702538 # occ.  2.00000000
 
ion      s      p      d    tot
  1  0.000  0.005  0.159  0.164
  2  0.000  0.002  0.637  0.639
  3  0.000  0.006  0.005  0.011
  4  0.000  0.000  0.002  0.003
  5  0.000  0.013  0.000  0.013
  6  0.000  0.013  0.000  0.013
  7  0.000  0.013  0.000  0.013
  8  0.000  0.013  0.000  0.013
tot  0.001  0.064  0.804  0.868
 
band  40 # energy    4.58311314 # occ.  2.00000000
 
ion      s      p      d    tot
  1  0.000  0.004  0.240  0.244
  2  0.000  0.003  0.219  0.223
  3  0.000  0.003  0.020  0.023
  4  0.000  0.001  0.016  0.016
  5  0.001  0.079  0.000  0.079
  6  0.001  0.079  0.000  0.079
  7  0.001  0.068  0.000  0.069
  8  0.001  0.068  0.000  0.069
tot  0.003  0.306  0.495  0.804
 
band  41 # energy    4.58312138 # occ.  2.00000000
 
ion      s      p      d    tot
  1  0.000  0.004  0.240  0.244
  2  0.000  0.003  0.219  0.223
  3  0.000  0.003  0.020  0.023
  4  0.000  0.001  0.016  0.016
  5  0.001  0.068  0.000  0.069
  6  0.001  0.068  0.000  0.069
  7  0.001  0.079  0.000  0.079
  8  0.001  0.079  0.000  0.079
tot  0.003  0.306  0.495  0.804
 
band  42 # energy    4.66092721 # occ.  2.00000000
 
ion      s      p      d    tot
  1  0.000  0.004  0.241  0.245
  2  0.000  0.004  0.244  0.249
  3  0.000  0.002  0.017  0.018
  4  0.000  0.001  0.013  0.014
  5  0.000  0.072  0.000  0.072
  6  0.000  0.072  0.000  0.072
  7  0.000  0.072  0.000  0.072
  8  0.000  0.072  0.000  0.072
tot  0.000  0.299  0.514  0.814
 
band  43 # energy    4.84526521 # occ.  0.00000000
 
ion      s      p      d    tot
  1  0.022  0.000  0.006  0.028
  2  0.028  0.000  0.039  0.068
  3  0.045  0.000  0.001  0.046
  4  0.126  0.000  0.000  0.126
  5  0.049  0.034  0.000  0.083
  6  0.049  0.034  0.000  0.083
  7  0.049  0.034  0.000  0.083
  8  0.049  0.034  0.000  0.083
tot  0.415  0.137  0.047  0.599
 
band  44 # energy    6.55670819 # occ.  0.00000000
 
ion      s      p      d    tot
  1  0.000  0.006  0.052  0.058
  2  0.000  0.017  0.046  0.063
  3  0.000  0.015  0.015  0.030
  4  0.000  0.116  0.029  0.145
  5  0.013  0.006  0.000  0.019
  6  0.013  0.006  0.000  0.019
  7  0.013  0.006  0.000  0.019
  8  0.013  0.006  0.000  0.019
tot  0.054  0.176  0.143  0.373
 
band  45 # energy    7.40996722 # occ.  0.00000000
 
ion      s      p      d    tot
  1  0.037  0.000  0.039  0.076
  2  0.000  0.000  0.052  0.053
  3  0.116  0.000  0.008  0.124
  4  0.066  0.000  0.009  0.075
  5  0.008  0.033  0.000  0.042
  6  0.008  0.033  0.000  0.042
  7  0.008  0.033  0.000  0.042
  8  0.008  0.033  0.000  0.042
tot  0.252  0.133  0.109  0.494
 
band  46 # energy    8.37509890 # occ.  0.00000000
 
ion      s      p      d    tot
  1  0.000  0.008  0.015  0.023
  2  0.000  0.001  0.028  0.029
  3  0.000  0.022  0.005  0.028
  4  0.000  0.204  0.030  0.234
  5  0.000  0.003  0.000  0.003
  6  0.000  0.003  0.000  0.003
  7  0.005  0.080  0.000  0.084
  8  0.005  0.080  0.000  0.084
tot  0.009  0.401  0.078  0.488
 
band  47 # energy    8.37510442 # occ.  0.00000000
 
ion      s      p      d    tot
  1  0.000  0.008  0.015  0.023
  2  0.000  0.001  0.028  0.029
  3  0.000  0.022  0.005  0.028
  4  0.000  0.204  0.030  0.234
  5  0.005  0.080  0.000  0.084
  6  0.005  0.080  0.000  0.084
  7  0.000  0.003  0.000  0.003
  8  0.000  0.003  0.000  0.003
tot  0.009  0.401  0.078  0.488
 
band  48 # energy    9.48476903 # occ.  0.00000000
 
ion      s      p      d    tot
  1  0.000  0.040  0.004  0.044
  2  0.000  0.012  0.001  0.014
  3  0.000  0.108  0.003  0.112
  4  0.000  0.166  0.001  0.167
  5  0.000  0.005  0.000  0.005
  6  0.000  0.005  0.000  0.005
  7  0.000  0.005  0.000  0.005
  8  0.000  0.005  0.000  0.005
tot  0.000  0.346  0.010  0.357
 
band  49 # energy    9.56094494 # occ.  0.00000000
 
ion      s      p      d    tot
  1  0.000  0.000  0.005  0.006
  2  0.149  0.000  0.000  0.150
  3  0.013  0.000  0.001  0.014
  4  0.049  0.000  0.033  0.082
  5  0.004  0.046  0.000  0.050
  6  0.004  0.046  0.000  0.050
  7  0.004  0.046  0.000  0.050
  8  0.004  0.046  0.000  0.050
tot  0.229  0.183  0.040  0.452
 
band  50 # energy    9.81337879 # occ.  0.00000000
 
ion      s      p      d    tot
  1  0.000  0.018  0.021  0.039
  2  0.000  0.022  0.011  0.033
  3  0.000  0.072  0.014  0.086
  4  0.000  0.069  0.009  0.078
  5  0.006  0.027  0.000  0.032
  6  0.006  0.027  0.000  0.032
  7  0.000  0.002  0.000  0.002
  8  0.000  0.002  0.000  0.002
tot  0.011  0.239  0.055  0.305
 
band  51 # energy    9.81338414 # occ.  0.00000000
 
ion      s      p      d    tot
  1  0.000  0.018  0.021  0.039
  2  0.000  0.022  0.011  0.033
  3  0.000  0.072  0.014  0.086
  4  0.000  0.069  0.009  0.078
  5  0.000  0.002  0.000  0.002
  6  0.000  0.002  0.000  0.002
  7  0.006  0.027  0.000  0.032
  8  0.006  0.027  0.000  0.032
tot  0.011  0.239  0.055  0.305
 
band  52 # energy   10.23916504 # occ.  0.00000000
 
ion      s      p      d    tot
  1  0.128  0.000  0.006  0.134
  2  0.003  0.000  0.001  0.003
  3  0.129  0.000  0.012  0.141
  4  0.000  0.000  0.002  0.002
  5  0.000  0.057  0.000  0.057
  6  0.000  0.057  0.000  0.057
  7  0.000  0.057  0.000  0.057
  8  0.000  0.057  0.000  0.057
tot  0.261  0.227  0.020  0.508
 

 k-point    2 :    0.16666667 0.00000000 0.00000000     weight = 0.02777778

band   1 # energy  -64.30588470 # occ.  2.00000000
 
ion      s      p      d    tot
  1  0.000  0.000  0.000  0.000
  2  0.000  0.997  0.000  0.997
  3  0.000  0.000  0.000  0.000
  4  0.000  0.000  0.000  0.000
  5  0.000  0.000  0.000  0.000
  6  0.000  0.000  0.000  0.000
  7  0.000  0.000  0.000  0.000
  8  0.000  0.000  0.000  0.000
tot  0.000  0.997  0.000  0.997
 
band   2 # energy  -64.25108431 # occ.  2.00000000
 
ion      s      p      d    tot
  1  0.000  0.997  0.000  0.997
  2  0.000  0.000  0.000  0.000
  3  0.000  0.000  0.000  0.000
  4  0.000  0.000  0.000  0.000
  5  0.000  0.000  0.000  0.000
  6  0.000  0.000  0.000  0.000
  7  0.000  0.000  0.000  0.000
  8  0.000  0.000  0.000  0.000
tot  0.000  0.997  0.000  0.997
 
band   3 # energy  -64.25101255 # occ.  2.00000000
 
ion      s      p      d    tot
  1  0.000  0.997  0.000  0.997
  2  0.000  0.000  0.000  0.000
  3  0.000  0.000  0.000  0.000
  4  0.000  0.000  0.000  0.000
  5  0.000  0.000  0.000  0.000
  6  0.000  0.000  0.000  0.000
  7  0.000  0.000  0.000  0.000
  8  0.000  0.000  0.000  0.000
tot  0.000  0.997  0.000  0.997
 
band   4 # energy  -64.22838725 # occ.  2.00000000
 
ion      s      p      d    tot
  1  0.000  0.000  0.000  0.000
  2  0.000  0.997  0.000  0.997
  3  0.000  0.000  0.000  0.000
  4  0.000  0.000  0.000  0.000
  5  0.000  0.000  0.000  0.000
  6  0.000  0.000  0.000  0.000
  7  0.000  0.000  0.000  0.000
  8  0.000  0.000  0.000  0.000
tot  0.000  0.997  0.000  0.997
 
band   5 # energy  -64.22831538 # occ.  2.00000000
 
ion      s      p      d    tot
  1  0.000  0.000  0.000  0.000
  2  0.000  0.997  0.000  0.997
  3  0.000  0.000  0.000  0.000
  4  0.000  0.000  0.000  0.000
  5  0.000  0.000  0.000  0.000
  6  0.000  0.000  0.000  0.000
  7  0.000  0.000  0.000  0.000
  8  0.000  0.000  0.000  0.000
tot  0.000  0.997  0.000  0.997
 
band   6 # energy  -64.22180681 # occ.  2.00000000
 
ion      s      p      d    tot
  1  0.000  0.997  0.000  0.997
  2  0.000  0.000  0.000  0.000
  3  0.000  0.000  0.000  0.000
  4  0.000  0.000  0.000  0.000
  5  0.000  0.000  0.000  0.000
  6  0.000  0.000  0.000  0.000
  7  0.000  0.000  0.000  0.000
  8  0.000  0.000  0.000  0.000
tot  0.000  0.997  0.000  0.997
 
band   7 # energy  -17.52069433 # occ.  2.00000000
 
ion      s      p      d    tot
  1  0.000  0.000  0.000  0.000
  2  0.000  0.000  0.000  0.000
  3  0.000  0.000  0.000  0.000
  4  0.000  0.000  0.984  0.984
  5  0.001  0.000  0.000  0.001
  6  0.001  0.000  0.000  0.001
  7  0.001  0.000  0.000  0.001
  8  0.001  0.000  0.000  0.001
tot  0.003  0.002  0.984  0.989
 
band   8 # energy  -17.51684888 # occ.  2.00000000
 
ion      s      p      d    tot
  1  0.000  0.000  0.000  0.000
  2  0.000  0.000  0.000  0.000
  3  0.000  0.000  0.000  0.000
  4  0.000  0.000  0.984  0.984
  5  0.001  0.000  0.000  0.001
  6  0.001  0.000  0.000  0.001
  7  0.001  0.000  0.000  0.001
  8  0.001  0.000  0.000  0.001
tot  0.003  0.002  0.984  0.989
 
band   9 # energy  -17.51671526 # occ.  2.00000000
 
ion      s      p      d    tot
  1  0.000  0.000  0.000  0.000
  2  0.000  0.000  0.000  0.000
  3  0.000  0.000  0.000  0.000
  4  0.000  0.000  0.984  0.984
  5  0.001  0.000  0.000  0.001
  6  0.001  0.000  0.000  0.001
  7  0.001  0.000  0.000  0.001
  8  0.001  0.000  0.000  0.001
tot  0.003  0.002  0.984  0.989
 
band  10 # energy  -17.43055601 # occ.  2.00000000
 
ion      s      p      d    tot
  1  0.000  0.000  0.000  0.000
  2  0.000  0.000  0.000  0.000
  3  0.000  0.000  0.000  0.000
  4  0.000  0.000  0.991  0.991
  5  0.000  0.000  0.000  0.000
  6  0.000  0.000  0.000  0.000
  7  0.000  0.000  0.000  0.000
  8  0.000  0.000  0.000  0.000
tot  0.000  0.000  0.991  0.991
 
band  11 # energy  -17.42497303 # occ.  2.00000000
 
ion      s      p      d    tot
  1  0.000  0.000  0.000  0.000
  2  0.000  0.000  0.000  0.000
  3  0.000  0.000  0.000  0.000
  4  0.000  0.000  0.991  0.991
  5  0.000  0.000  0.000  0.000
  6  0.000  0.000  0.000  0.000
  7  0.000  0.000  0.000  0.000
  8  0.000  0.000  0.000  0.000
tot  0.000  0.000  0.991  0.991
 
band  12 # energy   -9.79556069 # occ.  2.00000000
 
ion      s      p      d    tot
  1  0.008  0.000  0.000  0.008
  2  0.008  0.000  0.000  0.008
  3  0.021  0.001  0.000  0.022
  4  0.086  0.001  0.000  0.087
  5  0.131  0.001  0.000  0.132
  6  0.127  0.001  0.000  0.128
  7  0.126  0.001  0.000  0.127
  8  0.131  0.001  0.000  0.132
tot  0.638  0.005  0.001  0.644
 
band  13 # energy   -8.40911729 # occ.  2.00000000
 
ion      s      p      d    tot
  1  0.000  0.003  0.004  0.007
  2  0.001  0.003  0.004  0.007
  3  0.001  0.008  0.012  0.021
  4  0.006  0.020  0.010  0.036
  5  0.061  0.000  0.000  0.062
  6  0.238  0.000  0.000  0.239
  7  0.268  0.000  0.000  0.268
  8  0.072  0.000  0.000  0.072
tot  0.648  0.035  0.029  0.712
 
band  14 # energy   -8.36714076 # occ.  2.00000000
 
ion      s      p      d    tot
  1  0.001  0.003  0.004  0.007
  2  0.000  0.003  0.004  0.007
  3  0.002  0.008  0.012  0.022
  4  0.001  0.020  0.010  0.031
  5  0.189  0.000  0.000  0.189
  6  0.174  0.000  0.000  0.174
  7  0.189  0.000  0.000  0.189
  8  0.094  0.000  0.000  0.094
tot  0.649  0.035  0.030  0.714
 
band  15 # energy   -8.35335979 # occ.  2.00000000
 
ion      s      p      d    tot
  1  0.000  0.003  0.004  0.007
  2  0.001  0.003  0.004  0.007
  3  0.000  0.008  0.013  0.022
  4  0.000  0.021  0.010  0.032
  5  0.231  0.000  0.000  0.231
  6  0.072  0.000  0.000  0.072
  7  0.028  0.000  0.000  0.028
  8  0.315  0.000  0.000  0.315
tot  0.648  0.036  0.031  0.715
 
band  16 # energy   -3.41375680 # occ.  2.00000000
 
ion      s      p      d    tot
  1  0.007  0.000  0.002  0.009
  2  0.004  0.000  0.004  0.008
  3  0.026  0.001  0.058  0.085
  4  0.370  0.000  0.000  0.371
  5  0.011  0.043  0.000  0.054
  6  0.012  0.043  0.000  0.055
  7  0.012  0.043  0.000  0.055
  8  0.011  0.042  0.000  0.053
tot  0.453  0.173  0.065  0.690
 
band  17 # energy   -2.46941235 # occ.  2.00000000
 
ion      s      p      d    tot
  1  0.000  0.000  0.001  0.001
  2  0.000  0.000  0.001  0.001
  3  0.001  0.001  0.874  0.875
  4  0.004  0.007  0.001  0.012
  5  0.001  0.007  0.000  0.008
  6  0.001  0.009  0.000  0.011
  7  0.001  0.006  0.000  0.006
  8  0.001  0.016  0.000  0.017
tot  0.009  0.046  0.877  0.932
 
band  18 # energy   -2.45063860 # occ.  2.00000000
 
ion      s      p      d    tot
  1  0.002  0.000  0.001  0.003
  2  0.001  0.000  0.001  0.002
  3  0.000  0.001  0.885  0.886
  4  0.001  0.002  0.000  0.003
  5  0.002  0.015  0.000  0.017
  6  0.001  0.010  0.000  0.011
  7  0.000  0.004  0.000  0.005
  8  0.001  0.006  0.000  0.007
tot  0.007  0.039  0.888  0.934
 
band  19 # energy   -2.42789952 # occ.  2.00000000
 
ion      s      p      d    tot
  1  0.001  0.000  0.001  0.003
  2  0.000  0.000  0.001  0.002
  3  0.000  0.001  0.895  0.895
  4  0.001  0.002  0.001  0.003
  5  0.000  0.004  0.000  0.005
  6  0.001  0.005  0.000  0.006
  7  0.003  0.016  0.000  0.019
  8  0.002  0.009  0.000  0.010
tot  0.007  0.037  0.898  0.943
 
band  20 # energy   -2.41205495 # occ.  2.00000000
 
ion      s      p      d    tot
  1  0.000  0.000  0.001  0.001
  2  0.000  0.001  0.001  0.002
  3  0.000  0.000  0.899  0.899
  4  0.000  0.001  0.000  0.002
  5  0.001  0.008  0.000  0.009
  6  0.002  0.008  0.000  0.009
  7  0.000  0.006  0.000  0.006
  8  0.000  0.005  0.000  0.005
tot  0.004  0.029  0.902  0.935
 
band  21 # energy   -2.30848556 # occ.  2.00000000
 
ion      s      p      d    tot
  1  0.000  0.000  0.000  0.001
  2  0.003  0.000  0.000  0.003
  3  0.002  0.000  0.874  0.876
  4  0.025  0.001  0.000  0.026
  5  0.001  0.004  0.000  0.005
  6  0.000  0.005  0.000  0.005
  7  0.002  0.007  0.000  0.009
  8  0.001  0.006  0.000  0.007
tot  0.034  0.024  0.875  0.934
 
band  22 # energy   -1.09986464 # occ.  2.00000000
 
ion      s      p      d    tot
  1  0.013  0.000  0.012  0.025
  2  0.024  0.001  0.005  0.029
  3  0.165  0.001  0.009  0.175
  4  0.007  0.014  0.002  0.023
  5  0.003  0.074  0.000  0.077
  6  0.003  0.074  0.000  0.077
  7  0.001  0.070  0.000  0.071
  8  0.002  0.072  0.000  0.075
tot  0.218  0.307  0.028  0.552
 
band  23 # energy   -0.55097207 # occ.  2.00000000
 
ion      s      p      d    tot
  1  0.044  0.001  0.012  0.058
  2  0.036  0.003  0.006  0.045
  3  0.002  0.006  0.052  0.061
  4  0.001  0.041  0.004  0.045
  5  0.001  0.074  0.000  0.075
  6  0.000  0.076  0.000  0.076
  7  0.001  0.089  0.000  0.089
  8  0.001  0.071  0.000  0.072
tot  0.086  0.361  0.075  0.521
 
band  24 # energy   -0.30920567 # occ.  2.00000000
 
ion      s      p      d    tot
  1  0.014  0.003  0.029  0.046
  2  0.007  0.008  0.022  0.037
  3  0.003  0.008  0.066  0.077
  4  0.000  0.081  0.004  0.085
  5  0.001  0.100  0.000  0.101
  6  0.000  0.072  0.000  0.072
  7  0.000  0.040  0.000  0.041
  8  0.002  0.101  0.000  0.103
tot  0.028  0.413  0.121  0.562
 
band  25 # energy   -0.00824519 # occ.  2.00000000
 
ion      s      p      d    tot
  1  0.004  0.009  0.028  0.041
  2  0.010  0.002  0.033  0.045
  3  0.003  0.019  0.016  0.038
  4  0.001  0.084  0.005  0.089
  5  0.000  0.060  0.000  0.060
  6  0.001  0.098  0.000  0.099
  7  0.002  0.130  0.000  0.132
  8  0.000  0.050  0.000  0.050
tot  0.021  0.451  0.082  0.555
 
band  26 # energy    0.30792886 # occ.  2.00000000
 
ion      s      p      d    tot
  1  0.005  0.007  0.025  0.038
  2  0.004  0.001  0.025  0.029
  3  0.006  0.018  0.013  0.036
  4  0.000  0.124  0.006  0.130
  5  0.001  0.104  0.000  0.105
  6  0.002  0.083  0.000  0.084
  7  0.001  0.069  0.000  0.071
  8  0.001  0.100  0.000  0.101
tot  0.020  0.506  0.069  0.594
 
band  27 # energy    0.46546321 # occ.  2.00000000
 
ion      s      p      d    tot
  1  0.000  0.009  0.068  0.078
  2  0.004  0.003  0.054  0.061
  3  0.003  0.023  0.011  0.037
  4  0.001  0.051  0.009  0.062
  5  0.000  0.077  0.000  0.077
  6  0.001  0.113  0.000  0.113
  7  0.000  0.092  0.000  0.092
  8  0.001  0.075  0.000  0.076
tot  0.010  0.442  0.143  0.595
 
band  28 # energy    0.81034110 # occ.  2.00000000
 
ion      s      p      d    tot
  1  0.001  0.008  0.091  0.100