    2    2    1    1
  0.2002393E+02  0.3840297E-09  0.3840297E-09  0.3840297E-09  0.5000000E-15
  1.000000000000000E-004
  CAR 
 Name                                    
      8    899      8
 
  0.0000000E+00  0.0000000E+00  0.0000000E+00  0.4901961E-02
    1       -6.181781   1.000000
    2        5.776692   1.000000
    3        5.776692   1.000000
    4        5.776692   1.000000
    5        8.296693   0.000000
    6        8.296693   0.000000
    7        8.296693   0.000000
    8        8.983474   0.000000
 
  0.1666667E+00  0.0000000E+00  0.0000000E+00  0.3921569E-01
    1       -5.820430   1.000000
    2        3.379793   1.000000
    3        5.325482   1.000000
    4        5.325482   1.000000
    5        8.034505   0.000000
    6        8.943160   0.000000
    7        8.943160   0.000000
    8       11.092704   0.000000
 
  0.3333333E+00  0.0000000E+00  0.0000000E+00  0.3921569E-01
    1       -4.803316   1.000000
    2        0.424724   1.000000
    3        4.777655   1.000000
    4        4.777655   1.000000
    5        7.430393   0.000000
    6        9.233449   0.000000
    7        9.233449   0.000000
    8       13.449996   0.000000
 
  0.5000000E+00  0.0000000E+00  0.0000000E+00  0.1960784E-01
    1       -3.842898   1.000000
    2       -1.215787   1.000000
    3        4.580873   1.000000
    4        4.580873   1.000000
    5        7.202297   0.000000
    6        9.063763   0.000000
    7        9.063763   0.000000
    8       13.283848   0.000000
 
  0.1666667E+00  0.1666667E+00  0.0000000E+00  0.2941176E-01
    1       -5.697537   1.000000
    2        3.724355   1.000000
    3        4.579709   1.000000
    4        4.579709   1.000000
    5        7.403583   0.000000
    6        9.965692   0.000000
    7       10.073982   0.000000
    8       10.073983   0.000000
 
  0.3333333E+00  0.1666667E+00  0.0000000E+00  0.1176471E+00
    1       -4.881615   1.000000
    2        1.328899   1.000000
    3        3.767853   1.000000
    4        4.027906   1.000000
    5        7.657179   0.000000
    6        9.750742   0.000000
    7       10.222048   0.000000
    8       10.799006   0.000000
 
  0.5000000E+00  0.1666667E+00  0.0000000E+00  0.1176471E+00
    1       -3.685753   1.000000
    2       -0.844678   1.000000
    3        2.980171   1.000000
    4        3.999838   1.000000
    5        7.725253   0.000000
    6        9.804639   0.000000
    7       10.345441   0.000000
    8       12.101718   0.000000
 
 -0.3333333E+00  0.1666667E+00  0.0000000E+00  0.1176471E+00
    1       -4.072771   1.000000
    2       -0.243252   1.000000
    3        2.707655   1.000000
    4        4.480611   1.000000
    5        8.139622   0.000000
    6        9.807179   0.000000
    7        9.953570   0.000000
    8       12.962467   0.000000
 
 -0.1666667E+00  0.1666667E+00  0.0000000E+00  0.5882353E-01
    1       -5.231765   1.000000
    2        2.048432   1.000000
    3        3.343083   1.000000
    4        5.214066   1.000000
    5        8.740725   0.000000
    6        9.287243   0.000000
    7        9.540844   0.000000
    8       11.323564   0.000000
 
  0.3333333E+00  0.3333333E+00  0.0000000E+00  0.2941176E-01
    1       -4.277213   1.000000
    2        0.762224   1.000000
    3        3.356039   1.000000
    4        3.356039   1.000000
    5        6.401847   0.000000
    6        7.659218   0.000000
    7       12.965727   0.000000
    8       12.965730   0.000000
 
  0.5000000E+00  0.3333333E+00  0.0000000E+00  0.1176471E+00
    1       -3.112010   1.000000
    2       -0.788093   1.000000
    3        2.119516   1.000000
    4        3.220351   1.000000
    5        6.733686   0.000000
    6        8.400006   0.000000
    7       13.154740   0.000000
    8       13.159625   0.000000
 
 -0.3333333E+00  0.3333333E+00  0.0000000E+00  0.5882353E-01
    1       -2.912294   1.000000
    2       -0.995297   1.000000
    3        1.328780   1.000000
    4        3.663740   1.000000
    5        7.241221   0.000000
    6       11.481027   0.000000
    7       12.188036   0.000000
    8       12.753045   0.000000
 
  0.5000000E+00  0.5000000E+00  0.0000000E+00  0.1470588E-01
    1       -2.038015   1.000000
    2       -2.038015   1.000000
    3        2.922032   1.000000
    4        2.922032   1.000000
    5        6.375227   0.000000
    6        6.375227   0.000000
    7       15.751262   0.000000
    8       15.751766   0.000000
 
  0.5000000E+00  0.3333333E+00  0.1666667E+00  0.1176471E+00
    1       -3.890546   1.000000
    2        0.130271   1.000000
    3        2.180692   1.000000
    4        3.469288   1.000000
    5        8.548697   0.000000
    6        9.393330   0.000000
    7        9.933890   0.000000
    8       12.765268   0.000000
 
 -0.3333333E+00  0.3333333E+00  0.1666667E+00  0.1176471E+00
    1       -2.901876   1.000000
    2       -1.070962   1.000000
    3        1.737903   1.000000
    4        2.998084   1.000000
    5        9.041705   0.000000
    6        9.251513   0.000000
    7       11.784033   0.000000
    8       12.206036   0.000000
 
  0.0000000E+00  0.0000000E+00  0.0000000E+00  0.0000000E+00
    1       -6.181781   1.000000
    2        5.776692   1.000000
    3        5.776692   1.000000
    4        5.776692   1.000000
    5        8.296693   0.000000
    6        8.296693   0.000000
    7        8.296693   0.000000
    8        8.983474   0.000000
 
  0.1755190E-02  0.0000000E+00  0.1755190E-02  0.0000000E+00
    1       -6.181728   1.000000
    2        5.776306   1.000000
    3        5.776452   1.000000
    4        5.776452   1.000000
    5        8.296550   0.000000
    6        8.296998   0.000000
    7        8.296998   0.000000
    8        8.983853   0.000000
 
  0.3510370E-02  0.0000000E+00  0.3510370E-02  0.0000000E+00
    1       -6.181567   1.000000
    2        5.775149   1.000000
    3        5.775734   1.000000
    4        5.775734   1.000000
    5        8.296122   0.000000
    6        8.297913   0.000000
    7        8.297913   0.000000
    8        8.984990   0.000000
 
  0.5265560E-02  0.0000000E+00  0.5265560E-02  0.0000000E+00
    1       -6.181298   1.000000
    2        5.773222   1.000000
    3        5.774538   1.000000
    4        5.774539   1.000000
    5        8.295408   0.000000
    6        8.299436   0.000000
    7        8.299436   0.000000
    8        8.986881   0.000000
 
  0.7020750E-02  0.0000000E+00  0.7020750E-02  0.0000000E+00
    1       -6.180922   1.000000
    2        5.770529   1.000000
    3        5.772867   1.000000
    4        5.772867   1.000000
    5        8.294410   0.000000
    6        8.301566   0.000000
    7        8.301566   0.000000
    8        8.989525   0.000000
 
  0.8775930E-02  0.0000000E+00  0.8775930E-02  0.0000000E+00
    1       -6.180437   1.000000
    2        5.767073   1.000000
    3        5.770723   1.000000
    4        5.770723   1.000000
    5        8.293127   0.000000
    6        8.304301   0.000000
    7        8.304301   0.000000
    8        8.992917   0.000000
 
  0.1053112E-01  0.0000000E+00  0.1053112E-01  0.0000000E+00
    1       -6.179844   1.000000
    2        5.762860   1.000000
    3        5.768108   1.000000
    4        5.768108   1.000000
    5        8.291561   0.000000
    6        8.307636   0.000000
    7        8.307636   0.000000
    8        8.997051   0.000000
 
  0.1228631E-01  0.0000000E+00  0.1228631E-01  0.0000000E+00
    1       -6.179143   1.000000
    2        5.757896   1.000000
    3        5.765027   1.000000
    4        5.765027   1.000000
    5        8.289713   0.000000
    6        8.311568   0.000000
    7        8.311568   0.000000
    8        9.001919   0.000000
 
  0.1404149E-01  0.0000000E+00  0.1404149E-01  0.0000000E+00
    1       -6.178335   1.000000
    2        5.752188   1.000000
    3        5.761485   1.000000
    4        5.761485   1.000000
    5        8.287584   0.000000
    6        8.316093   0.000000
    7        8.316093   0.000000
    8        9.007514   0.000000
 
  0.1579668E-01  0.0000000E+00  0.1579668E-01  0.0000000E+00
    1       -6.177418   1.000000
    2        5.745743   1.000000
    3        5.757486   1.000000
    4        5.757486   1.000000
    5        8.285175   0.000000
    6        8.321205   0.000000
    7        8.321205   0.000000
    8        9.013826   0.000000
 
  0.1755187E-01  0.0000000E+00  0.1755187E-01  0.0000000E+00
    1       -6.176394   1.000000
    2        5.738572   1.000000
    3        5.753037   1.000000
    4        5.753037   1.000000
    5        8.282487   0.000000
    6        8.326898   0.000000
    7        8.326898   0.000000
    8        9.020845   0.000000
 
  0.1930705E-01  0.0000000E+00  0.1930705E-01  0.0000000E+00
    1       -6.175261   1.000000
    2        5.730683   1.000000
    3        5.748143   1.000000
    4        5.748143   1.000000
    5        8.279523   0.000000
    6        8.333166   0.000000
    7        8.333166   0.000000
    8        9.028560   0.000000
 
  0.2106224E-01  0.0000000E+00  0.2106224E-01  0.0000000E+00
    1       -6.174021   1.000000
    2        5.722089   1.000000
    3        5.742811   1.000000
    4        5.742811   1.000000
    5        8.276284   0.000000
    6        8.340003   0.000000
    7        8.340003   0.000000
    8        9.036959   0.000000
 
  0.2281743E-01  0.0000000E+00  0.2281743E-01  0.0000000E+00
    1       -6.172672   1.000000
    2        5.712800   1.000000
    3        5.737049   1.000000
    4        5.737049   1.000000
    5        8.272773   0.000000
    6        8.347401   0.000000
    7        8.347401   0.000000
    8        9.046027   0.000000
 
  0.2457261E-01  0.0000000E+00  0.2457261E-01  0.0000000E+00
    1       -6.171216   1.000000
    2        5.702829   1.000000
    3        5.730865   1.000000
    4        5.730865   1.000000
    5        8.268991   0.000000
    6        8.355351   0.000000
    7        8.355351   0.000000
    8        9.055752   0.000000
 
  0.2632780E-01  0.0000000E+00  0.2632780E-01  0.0000000E+00
    1       -6.169651   1.000000
    2        5.692188   1.000000
    3        5.724266   1.000000
    4        5.724266   1.000000
    5        8.264942   0.000000
    6        8.363847   0.000000
    7        8.363847   0.000000
    8        9.066118   0.000000
 
  0.2808299E-01  0.0000000E+00  0.2808299E-01  0.0000000E+00
    1       -6.167981   1.000000
    2        5.680886   1.000000
    3        5.717262   1.000000
    4        5.717262   1.000000
    5        8.260624   0.000000
    6        8.372879   0.000000
    7        8.372880   0.000000
    8        9.077109   0.000000
 
  0.2983817E-01  0.0000000E+00  0.2983817E-01  0.0000000E+00
    1       -6.166200   1.000000
    2        5.668946   1.000000
    3        5.709861   1.000000
    4        5.709861   1.000000
    5        8.256046   0.000000
    6        8.382439   0.000000
    7        8.382439   0.000000
    8        9.088711   0.000000
 
  0.3159336E-01  0.0000000E+00  0.3159336E-01  0.0000000E+00
    1       -6.164312   1.000000
    2        5.656376   1.000000
    3        5.702072   1.000000
    4        5.702072   1.000000
    5        8.251209   0.000000
    6        8.392517   0.000000
    7        8.392517   0.000000
    8        9.100905   0.000000
 
  0.3334855E-01  0.0000000E+00  0.3334855E-01  0.0000000E+00
    1       -6.162316   1.000000
    2        5.643193   1.000000
    3        5.693905   1.000000
    4        5.693905   1.000000
    5        8.246114   0.000000
    6        8.403104   0.000000
    7        8.403104   0.000000
    8        9.113675   0.000000
 
  0.3510373E-01  0.0000000E+00  0.3510373E-01  0.0000000E+00
    1       -6.160217   1.000000
    2        5.629396   1.000000
    3        5.685364   1.000000
    4        5.685364   1.000000
    5        8.240759   0.000000
    6        8.414185   0.000000
    7        8.414185   0.000000
    8        9.126996   0.000000
 
  0.3685892E-01  0.0000000E+00  0.3685892E-01  0.0000000E+00
    1       -6.158005   1.000000
    2        5.615028   1.000000
    3        5.676470   1.000000
    4        5.676470   1.000000
    5        8.235160   0.000000
    6        8.425760   0.000000
    7        8.425760   0.000000
    8        9.140864   0.000000
 
  0.3861411E-01  0.0000000E+00  0.3861411E-01  0.0000000E+00
    1       -6.155685   1.000000
    2        5.600091   1.000000
    3        5.667226   1.000000
    4        5.667226   1.000000
    5        8.229314   0.000000
    6        8.437814   0.000000
    7        8.437814   0.000000
    8        9.155253   0.000000
 
  0.4036929E-01  0.0000000E+00  0.4036929E-01  0.0000000E+00
    1       -6.153258   1.000000
    2        5.584600   1.000000
    3        5.657643   1.000000
    4        5.657643   1.000000
    5        8.223223   0.000000
    6        8.450338   0.000000
    7        8.450338   0.000000
    8        9.170144   0.000000
 
  0.4212448E-01  0.0000000E+00  0.4212448E-01  0.0000000E+00
    1       -6.150722   1.000000
    2        5.568569   1.000000
    3        5.647730   1.000000
    4        5.647730   1.000000
    5        8.216892   0.000000
    6        8.463322   0.000000
    7        8.463322   0.000000
    8        9.185519   0.000000
 
  0.4387967E-01  0.0000000E+00  0.4387967E-01  0.0000000E+00
    1       -6.148079   1.000000
    2        5.552014   1.000000
    3        5.637499   1.000000
    4        5.637499   1.000000
    5        8.210324   0.000000
    6        8.476754   0.000000
    7        8.476754   0.000000
    8        9.201357   0.000000
 
  0.4563485E-01  0.0000000E+00  0.4563485E-01  0.0000000E+00
    1       -6.145328   1.000000
    2        5.534949   1.000000
    3        5.626959   1.000000
    4        5.626959   1.000000
    5        8.203523   0.000000
    6        8.490626   0.000000
    7        8.490626   0.000000
    8        9.217639   0.000000
 
  0.4739004E-01  0.0000000E+00  0.4739004E-01  0.0000000E+00
    1       -6.142469   1.000000
    2        5.517390   1.000000
    3        5.616120   1.000000
    4        5.616120   1.000000
    5        8.196493   0.000000
    6        8.504926   0.000000
    7        8.504926   0.000000
    8        9.234346   0.000000
 
  0.4914523E-01  0.0000000E+00  0.4914523E-01  0.0000000E+00
    1       -6.139506   1.000000
    2        5.499339   1.000000
    3        5.604988   1.000000
    4        5.604988   1.000000
    5        8.189231   0.000000
    6        8.519635   0.000000
    7        8.519635   0.000000
    8        9.251449   0.000000
 
  0.5090041E-01  0.0000000E+00  0.5090041E-01  0.0000000E+00
    1       -6.136432   1.000000
    2        5.480836   1.000000
    3        5.593581   1.000000
    4        5.593581   1.000000
    5        8.181753   0.000000
    6        8.534763   0.000000
    7        8.534763   0.000000
    8        9.268945   0.000000
 
  0.5265560E-01  0.0000000E+00  0.5265560E-01  0.0000000E+00
    1       -6.133250   1.000000
    2        5.461882   1.000000
    3        5.581905   1.000000
    4        5.581905   1.000000
    5        8.174058   0.000000
    6        8.550289   0.000000
    7        8.550289   0.000000
    8        9.286805   0.000000
 
  0.5441079E-01  0.0000000E+00  0.5441079E-01  0.0000000E+00
    1       -6.129960   1.000000
    2        5.442491   1.000000
    3        5.569970   1.000000
    4        5.569970   1.000000
    5        8.166149   0.000000
    6        8.566205   0.000000
    7        8.566205   0.000000
    8        9.305008   0.000000
 
  0.5616597E-01  0.0000000E+00  0.5616597E-01  0.0000000E+00
    1       -6.126563   1.000000
    2        5.422679   1.000000
    3        5.557784   1.000000
    4        5.557784   1.000000
    5        8.158031   0.000000
    6        8.582499   0.000000
    7        8.582499   0.000000
    8        9.323534   0.000000
 
  0.5792116E-01  0.0000000E+00  0.5792116E-01  0.0000000E+00
    1       -6.123057   1.000000
    2        5.402456   1.000000
    3        5.545358   1.000000
    4        5.545358   1.000000
    5        8.149707   0.000000
    6        8.599164   0.000000
    7        8.599164   0.000000
    8        9.342363   0.000000
 
  0.5967635E-01  0.0000000E+00  0.5967635E-01  0.0000000E+00
    1       -6.119445   1.000000
    2        5.381838   1.000000
    3        5.532701   1.000000
    4        5.532701   1.000000
    5        8.141182   0.000000
    6        8.616189   0.000000
    7        8.616189   0.000000
    8        9.361472   0.000000
 
  0.6143153E-01  0.0000000E+00  0.6143153E-01  0.0000000E+00
    1       -6.115724   1.000000
    2        5.360838   1.000000
    3        5.519823   1.000000
    4        5.519823   1.000000
    5        8.132461   0.000000
    6        8.633565   0.000000
    7        8.633565   0.000000
    8        9.380842   0.000000
 
  0.6318672E-01  0.0000000E+00  0.6318672E-01  0.0000000E+00
    1       -6.111896   1.000000
    2        5.339455   1.000000
    3        5.506728   1.000000
    4        5.506728   1.000000
    5        8.123546   0.000000
    6        8.651281   0.000000
    7        8.651281   0.000000
    8        9.400449   0.000000
 
  0.6494191E-01  0.0000000E+00  0.6494191E-01  0.0000000E+00
    1       -6.107956   1.000000
    2        5.317728   1.000000
    3        5.493433   1.000000
    4        5.493433   1.000000
    5        8.114447   0.000000
    6        8.669332   0.000000
    7        8.669332   0.000000
    8        9.420277   0.000000
 
  0.6669709E-01  0.0000000E+00  0.6669709E-01  0.0000000E+00
    1       -6.103913   1.000000
    2        5.295656   1.000000
    3        5.479941   1.000000
    4        5.479941   1.000000
    5        8.105160   0.000000
    6        8.687707   0.000000
    7        8.687707   0.000000
    8        9.440299   0.000000
 
  0.6845228E-01  0.0000000E+00  0.6845228E-01  0.0000000E+00
    1       -6.099763   1.000000
    2        5.273250   1.000000
    3        5.466262   1.000000
    4        5.466262   1.000000
    5        8.095694   0.000000
    6        8.706399   0.000000
    7        8.706399   0.000000
    8        9.460496   0.000000
 
  0.7020747E-01  0.0000000E+00  0.7020747E-01  0.0000000E+00
    1       -6.095505   1.000000
    2        5.250523   1.000000
    3        5.452404   1.000000
    4        5.452404   1.000000
    5        8.086052   0.000000
    6        8.725397   0.000000
    7        8.725397   0.000000
    8        9.480844   0.000000
 
  0.7196265E-01  0.0000000E+00  0.7196265E-01  0.0000000E+00
    1       -6.091139   1.000000
    2        5.227485   1.000000
    3        5.438375   1.000000
    4        5.438375   1.000000
    5        8.076240   0.000000
    6        8.744696   0.000000
    7        8.744696   0.000000
    8        9.501321   0.000000
 
  0.7371784E-01  0.0000000E+00  0.7371784E-01  0.0000000E+00
    1       -6.086666   1.000000
    2        5.204147   1.000000
    3        5.424183   1.000000
    4        5.424183   1.000000
    5        8.066261   0.000000
    6        8.764285   0.000000
    7        8.764285   0.000000
    8        9.521905   0.000000
 
  0.7547303E-01  0.0000000E+00  0.7547303E-01  0.0000000E+00
    1       -6.082086   1.000000
    2        5.180520   1.000000
    3        5.409835   1.000000
    4        5.409835   1.000000
    5        8.056120   0.000000
    6        8.784159   0.000000
    7        8.784159   0.000000
    8        9.542571   0.000000
 
  0.7722821E-01  0.0000000E+00  0.7722821E-01  0.0000000E+00
    1       -6.077399   1.000000
    2        5.156613   1.000000
    3        5.395339   1.000000
    4        5.395339   1.000000
    5        8.045821   0.000000
    6        8.804309   0.000000
    7        8.804309   0.000000
    8        9.563297   0.000000
 
  0.7898340E-01  0.0000000E+00  0.7898340E-01  0.0000000E+00
    1       -6.072604   1.000000
    2        5.132437   1.000000
    3        5.380702   1.000000
    4        5.380702   1.000000
    5        8.035368   0.000000
    6        8.824728   0.000000
    7        8.824728   0.000000
    8        9.584057   0.000000
 
  0.8073859E-01  0.0000000E+00  0.8073859E-01  0.0000000E+00
    1       -6.067701   1.000000
    2        5.108001   1.000000
    3        5.365931   1.000000
    4        5.365931   1.000000
    5        8.024767   0.000000
    6        8.845409   0.000000
    7        8.845409   0.000000
    8        9.604828   0.000000
 
  0.8249377E-01  0.0000000E+00  0.8249377E-01  0.0000000E+00
    1       -6.062695   1.000000
    2        5.083301   1.000000
    3        5.351023   1.000000
    4        5.351023   1.000000
    5        8.014021   0.000000
    6        8.866340   0.000000
    7        8.866340   0.000000
    8        9.625580   0.000000
 
  0.8424895E-01  0.0000000E+00  0.8424895E-01  0.0000000E+00
    1       -6.057579   1.000000
    2        5.058373   1.000000
    3        5.336004   1.000000
    4        5.336004   1.000000
    5        8.003134   0.000000
    6        8.887524   0.000000
    7        8.887524   0.000000
    8        9.646293   0.000000
 
  0.8600415E-01  0.0000000E+00  0.8600415E-01  0.0000000E+00
    1       -6.052355   1.000000
    2        5.033211   1.000000
    3        5.320871   1.000000
    4        5.320871   1.000000
    5        7.992111   0.000000
    6        8.908949   0.000000
    7        8.908949   0.000000
    8        9.666938   0.000000
 
  0.8775933E-01  0.0000000E+00  0.8775933E-01  0.0000000E+00
    1       -6.047027   1.000000
    2        5.007824   1.000000
    3        5.305629   1.000000
    4        5.305629   1.000000
    5        7.980956   0.000000
    6        8.930610   0.000000
    7        8.930610   0.000000
    8        9.687486   0.000000
 
  0.8951452E-01  0.0000000E+00  0.8951452E-01  0.0000000E+00
    1       -6.041591   1.000000
    2        4.982220   1.000000
    3        5.290286   1.000000
    4        5.290286   1.000000
    5        7.969673   0.000000
    6        8.952500   0.000000
    7        8.952500   0.000000
    8        9.707910   0.000000
 
  0.9126971E-01  0.0000000E+00  0.9126971E-01  0.0000000E+00
    1       -6.036049   1.000000
    2        4.956407   1.000000
    3        5.274846   1.000000
    4        5.274846   1.000000
    5        7.958266   0.000000
    6        8.974613   0.000000
    7        8.974613   0.000000
    8        9.728180   0.000000
 
  0.9302489E-01  0.0000000E+00  0.9302489E-01  0.0000000E+00
    1       -6.030399   1.000000
    2        4.930391   1.000000
    3        5.259316   1.000000
    4        5.259316   1.000000
    5        7.946740   0.000000
    6        8.996944   0.000000
    7        8.996944   0.000000
    8        9.748265   0.000000
 
  0.9478008E-01  0.0000000E+00  0.9478008E-01  0.0000000E+00
    1       -6.024643   1.000000
    2        4.904181   1.000000
    3        5.243700   1.000000
    4        5.243700   1.000000
    5        7.935099   0.000000
    6        9.019486   0.000000
    7        9.019486   0.000000
    8        9.768135   0.000000
 
  0.9653527E-01  0.0000000E+00  0.9653527E-01  0.0000000E+00
    1       -6.018779   1.000000
    2        4.877784   1.000000
    3        5.228005   1.000000
    4        5.228005   1.000000
    5        7.923347   0.000000
    6        9.042235   0.000000
    7        9.042235   0.000000
    8        9.787757   0.000000
 
  0.9829045E-01  0.0000000E+00  0.9829045E-01  0.0000000E+00
    1       -6.012809   1.000000
    2        4.851205   1.000000
    3        5.212235   1.000000
    4        5.212235   1.000000
    5        7.911487   0.000000
    6        9.065184   0.000000
    7        9.065184   0.000000
    8        9.807098   0.000000
 
  0.1000456E+00  0.0000000E+00  0.1000456E+00  0.0000000E+00
    1       -6.006732   1.000000
    2        4.824451   1.000000
    3        5.196396   1.000000
    4        5.196396   1.000000
    5        7.899524   0.000000
    6        9.088330   0.000000
    7        9.088330   0.000000
    8        9.826123   0.000000
 
  0.1018008E+00  0.0000000E+00  0.1018008E+00  0.0000000E+00
    1       -6.000548   1.000000
    2        4.797528   1.000000
    3        5.180491   1.000000
    4        5.180491   1.000000
    5        7.887462   0.000000
    6        9.111666   0.000000
    7        9.111666   0.000000
    8        9.844796   0.000000
 
  0.1035560E+00  0.0000000E+00  0.1035560E+00  0.0000000E+00
    1       -5.994257   1.000000
    2        4.770444   1.000000
    3        5.164527   1.000000
    4        5.164527   1.000000
    5        7.875304   0.000000
    6        9.135189   0.000000
    7        9.135189   0.000000
    8        9.863082   0.000000
 
  0.1053112E+00  0.0000000E+00  0.1053112E+00  0.0000000E+00
    1       -5.987860   1.000000
    2        4.743202   1.000000
    3        5.148507   1.000000
    4        5.148507   1.000000
    5        7.863055   0.000000
    6        9.158893   0.000000
    7        9.158893   0.000000
    8        9.880941   0.000000
 
  0.1070664E+00  0.0000000E+00  0.1070664E+00  0.0000000E+00
    1       -5.981355   1.000000
    2        4.715809   1.000000
    3        5.132435   1.000000
    4        5.132435   1.000000
    5        7.850718   0.000000
    6        9.182773   0.000000
    7        9.182773   0.000000
    8        9.898336   0.000000
 
  0.1088216E+00  0.0000000E+00  0.1088216E+00  0.0000000E+00
    1       -5.974744   1.000000
    2        4.688269   1.000000
    3        5.116316   1.000000
    4        5.116316   1.000000
    5        7.838297   0.000000
    6        9.206827   0.000000
    7        9.206827   0.000000
    8        9.915225   0.000000
 
  0.1105768E+00  0.0000000E+00  0.1105768E+00  0.0000000E+00
    1       -5.968027   1.000000
    2        4.660589   1.000000
    3        5.100154   1.000000
    4        5.100154   1.000000
    5        7.825796   0.000000
    6        9.231048   0.000000
    7        9.231048   0.000000
    8        9.931569   0.000000
 
  0.1123319E+00  0.0000000E+00  0.1123319E+00  0.0000000E+00
    1       -5.961203   1.000000
    2        4.632773   1.000000
    3        5.083953   1.000000
    4        5.083953   1.000000
    5        7.813219   0.000000
    6        9.255434   0.000000
    7        9.255434   0.000000
    8        9.947326   0.000000
 
  0.1140871E+00  0.0000000E+00  0.1140871E+00  0.0000000E+00
    1       -5.954272   1.000000
    2        4.604825   1.000000
    3        5.067717   1.000000
    4        5.067717   1.000000
    5        7.800568   0.000000
    6        9.279980   0.000000
    7        9.279980   0.000000
    8        9.962452   0.000000
 
  0.1158423E+00  0.0000000E+00  0.1158423E+00  0.0000000E+00
    1       -5.947235   1.000000
    2        4.576751   1.000000
    3        5.051450   1.000000
    4        5.051450   1.000000
    5        7.787848   0.000000
    6        9.304682   0.000000
    7        9.304682   0.000000
    8        9.976904   0.000000
 
  0.1175975E+00  0.0000000E+00  0.1175975E+00  0.0000000E+00
    1       -5.940092   1.000000
    2        4.548554   1.000000
    3        5.035154   1.000000
    4        5.035154   1.000000
    5        7.775063   0.000000
    6        9.329536   0.000000
    7        9.329536   0.000000
    8        9.990641   0.000000
 
  0.1193527E+00  0.0000000E+00  0.1193527E+00  0.0000000E+00
    1       -5.932842   1.000000
    2        4.520240   1.000000
    3        5.018834   1.000000
    4        5.018834   1.000000
    5        7.762215   0.000000
    6        9.354540   0.000000
    7        9.354541   0.000000
    8       10.003619   0.000000
 
  0.1211079E+00  0.0000000E+00  0.1211079E+00  0.0000000E+00
    1       -5.925486   1.000000
    2        4.491811   1.000000
    3        5.002493   1.000000
    4        5.002493   1.000000
    5        7.749308   0.000000
    6        9.379689   0.000000
    7        9.379689   0.000000
    8       10.015791   0.000000
 
  0.1228631E+00  0.0000000E+00  0.1228631E+00  0.0000000E+00
    1       -5.918024   1.000000
    2        4.463272   1.000000
    3        4.986134   1.000000
    4        4.986134   1.000000
    5        7.736345   0.000000
    6        9.404979   0.000000
    7        9.404980   0.000000
    8       10.027118   0.000000
 
  0.1246182E+00  0.0000000E+00  0.1246182E+00  0.0000000E+00
    1       -5.910447   1.000000
    2        4.434628   1.000000
    3        4.969763   1.000000
    4        4.969763   1.000000
    5        7.723331   0.000000
    6        9.430411   0.000000
    7        9.430411   0.000000
    8       10.037560   0.000000
 
  0.1263734E+00  0.0000000E+00  0.1263734E+00  0.0000000E+00
    1       -5.902772   1.000000
    2        4.405880   1.000000
    3        4.953378   1.000000
    4        4.953378   1.000000
    5        7.710267   0.000000
    6        9.455975   0.000000
    7        9.455975   0.000000
    8       10.047071   0.000000
 
  0.1281286E+00  0.0000000E+00  0.1281286E+00  0.0000000E+00
    1       -5.894991   1.000000
    2        4.377033   1.000000
    3        4.936983   1.000000
    4        4.936983   1.000000
    5        7.697157   0.000000
    6        9.481671   0.000000
    7        9.481671   0.000000
    8       10.055614   0.000000
 
  0.1298838E+00  0.0000000E+00  0.1298838E+00  0.0000000E+00
    1       -5.887105   1.000000
    2        4.348091   1.000000
    3        4.920583   1.000000
    4        4.920583   1.000000
    5        7.684005   0.000000
    6        9.507496   0.000000
    7        9.507496   0.000000
    8       10.063155   0.000000
 
  0.1316390E+00  0.0000000E+00  0.1316390E+00  0.0000000E+00
    1       -5.879112   1.000000
    2        4.319056   1.000000
    3        4.904180   1.000000
    4        4.904180   1.000000
    5        7.670813   0.000000
    6        9.533448   0.000000
    7        9.533448   0.000000
    8       10.069657   0.000000
 