  96  96   0   0
  0.2080188E+02  0.1257760E-08  0.1245754E-08  0.1274818E-08  0.5000000E-15
  1.000000000000000E-004
  CAR 
 MAPbI3-Cubic                            
      8.89176344    -19.60485391  301      1.43514856      1.00000000
    -19.605  0.0000E+00  0.0000E+00
    -19.510  0.0000E+00  0.0000E+00
    -19.415  0.0000E+00  0.0000E+00
    -19.320  0.0000E+00  0.0000E+00
    -19.225  0.0000E+00  0.0000E+00
    -19.130  0.0000E+00  0.0000E+00
    -19.035  0.0000E+00  0.0000E+00
    -18.940  0.0000E+00  0.0000E+00
    -18.845  0.0000E+00  0.0000E+00
    -18.750  0.0000E+00  0.0000E+00
    -18.655  0.0000E+00  0.0000E+00
    -18.560  0.0000E+00  0.0000E+00
    -18.465  0.0000E+00  0.0000E+00
    -18.370  0.0000E+00  0.0000E+00
    -18.275  0.0000E+00  0.1600E+02
    -18.180  0.0000E+00  0.1600E+02
    -18.085  0.0000E+00  0.1600E+02
    -17.990  0.0000E+00  0.1600E+02
    -17.895  0.0000E+00  0.1600E+02
    -17.800  0.0000E+00  0.1600E+02
    -17.705  0.0000E+00  0.1600E+02
    -17.610  0.0000E+00  0.1600E+02
    -17.515  0.0000E+00  0.1600E+02
    -17.420  0.0000E+00  0.1600E+02
    -17.325  0.0000E+00  0.1600E+02
    -17.230  0.0000E+00  0.1600E+02
    -17.135  0.0000E+00  0.1600E+02
    -17.040  0.0000E+00  0.1600E+02
    -16.945  0.0000E+00  0.1600E+02
    -16.850  0.0000E+00  0.1600E+02
    -16.755  0.0000E+00  0.1600E+02
    -16.660  0.0000E+00  0.1600E+02
    -16.565  0.0000E+00  0.1600E+02
    -16.470  0.0000E+00  0.1600E+02
    -16.375  0.0000E+00  0.1600E+02
    -16.280  0.0000E+00  0.1600E+02
    -16.185  0.0000E+00  0.1600E+02
    -16.090  0.0000E+00  0.1600E+02
    -15.995  0.0000E+00  0.1600E+02
    -15.900  0.0000E+00  0.1600E+02
    -15.805  0.0000E+00  0.1600E+02
    -15.710  0.0000E+00  0.1600E+02
    -15.615  0.0000E+00  0.1600E+02
    -15.520  0.0000E+00  0.1600E+02
    -15.425  0.0000E+00  0.1600E+02
    -15.330  0.0000E+00  0.1600E+02
    -15.235  0.0000E+00  0.1600E+02
    -15.140  0.0000E+00  0.1600E+02
    -15.045  0.5830E+02  0.4798E+02
    -14.950  0.0000E+00  0.9600E+02
    -14.855  0.0000E+00  0.9600E+02
    -14.760  0.0000E+00  0.9600E+02
    -14.665  0.0000E+00  0.9600E+02
    -14.570  0.0000E+00  0.9600E+02
    -14.475  0.0000E+00  0.9600E+02
    -14.380  0.0000E+00  0.9600E+02
    -14.285  0.0000E+00  0.9600E+02
    -14.190  0.0000E+00  0.9600E+02
    -14.096  0.0000E+00  0.9600E+02
    -14.001  0.0000E+00  0.9600E+02
    -13.906  0.0000E+00  0.9600E+02
    -13.811  0.0000E+00  0.9600E+02
    -13.716  0.0000E+00  0.9600E+02
    -13.621  0.0000E+00  0.9600E+02
    -13.526  0.0000E+00  0.9600E+02
    -13.431  0.0000E+00  0.9600E+02
    -13.336  0.0000E+00  0.9600E+02
    -13.241  0.0000E+00  0.9600E+02
    -13.146  0.0000E+00  0.9600E+02
    -13.051  0.0000E+00  0.9600E+02
    -12.956  0.0000E+00  0.9600E+02
    -12.861  0.0000E+00  0.9600E+02
    -12.766  0.0000E+00  0.9600E+02
    -12.671  0.0000E+00  0.9600E+02
    -12.576  0.0000E+00  0.9600E+02
    -12.481  0.0000E+00  0.9600E+02
    -12.386  0.0000E+00  0.9600E+02
    -12.291  0.0000E+00  0.9600E+02
    -12.196  0.0000E+00  0.9600E+02
    -12.101  0.0000E+00  0.9600E+02
    -12.006  0.0000E+00  0.9600E+02
    -11.911  0.0000E+00  0.9600E+02
    -11.816  0.0000E+00  0.9600E+02
    -11.721  0.0000E+00  0.9600E+02
    -11.626  0.0000E+00  0.9600E+02
    -11.531  0.0000E+00  0.9600E+02
    -11.436  0.0000E+00  0.9600E+02
    -11.341  0.1058E+02  0.1046E+03
    -11.246  0.0000E+00  0.1120E+03
    -11.151  0.0000E+00  0.1120E+03
    -11.056  0.0000E+00  0.1120E+03
    -10.961  0.0000E+00  0.1120E+03
    -10.866  0.0000E+00  0.1120E+03
    -10.771  0.2911E+01  0.1128E+03
    -10.676  0.2666E+01  0.1153E+03
    -10.581  0.2330E+01  0.1209E+03
    -10.486  0.4690E+01  0.1267E+03
    -10.391  0.0000E+00  0.1291E+03
    -10.296  0.3623E+01  0.1363E+03
    -10.201  0.7927E+01  0.1410E+03
    -10.106  0.0000E+00  0.1442E+03
    -10.011  0.6593E+01  0.1534E+03
     -9.916  0.3120E+01  0.1594E+03
     -9.821  0.0000E+00  0.1600E+03
     -9.726  0.0000E+00  0.1600E+03
     -9.631  0.0000E+00  0.1600E+03
     -9.536  0.0000E+00  0.1600E+03
     -9.441  0.0000E+00  0.1600E+03
     -9.346  0.0000E+00  0.1600E+03
     -9.251  0.0000E+00  0.1600E+03
     -9.156  0.0000E+00  0.1600E+03
     -9.061  0.0000E+00  0.1600E+03
     -8.966  0.0000E+00  0.1600E+03
     -8.871  0.0000E+00  0.1600E+03
     -8.776  0.0000E+00  0.1600E+03
     -8.681  0.0000E+00  0.1600E+03
     -8.586  0.0000E+00  0.1600E+03
     -8.491  0.0000E+00  0.1600E+03
     -8.396  0.0000E+00  0.1600E+03
     -8.301  0.0000E+00  0.1600E+03
     -8.206  0.0000E+00  0.1600E+03
     -8.111  0.0000E+00  0.1600E+03
     -8.016  0.0000E+00  0.1600E+03
     -7.921  0.0000E+00  0.1600E+03
     -7.826  0.0000E+00  0.1600E+03
     -7.731  0.3753E+02  0.1716E+03
     -7.636  0.0000E+00  0.1920E+03
     -7.541  0.0000E+00  0.1920E+03
     -7.446  0.0000E+00  0.1920E+03
     -7.351  0.0000E+00  0.1920E+03
     -7.256  0.0000E+00  0.1920E+03
     -7.161  0.0000E+00  0.1920E+03
     -7.066  0.0000E+00  0.1920E+03
     -6.971  0.0000E+00  0.1921E+03
     -6.876  0.0000E+00  0.1925E+03
     -6.781  0.0000E+00  0.1934E+03
     -6.686  0.2516E+01  0.1936E+03
     -6.591  0.0000E+00  0.1944E+03
     -6.496  0.5433E-01  0.1960E+03
     -6.401  0.4679E+01  0.1979E+03
     -6.306  0.0000E+00  0.1991E+03
     -6.211  0.1560E+01  0.2009E+03
     -6.116  0.3119E+01  0.2031E+03
     -6.021  0.6239E+01  0.2044E+03
     -5.926  0.1294E-01  0.2058E+03
     -5.831  0.1208E+02  0.2108E+03
     -5.737  0.0000E+00  0.2226E+03
     -5.642  0.0000E+00  0.2235E+03
     -5.547  0.1022E-08  0.2236E+03
     -5.452  0.0000E+00  0.2239E+03
     -5.357  0.0000E+00  0.2240E+03
     -5.262  0.0000E+00  0.2240E+03
     -5.167  0.0000E+00  0.2240E+03
     -5.072  0.0000E+00  0.2240E+03
     -4.977  0.0000E+00  0.2240E+03
     -4.882  0.0000E+00  0.2240E+03
     -4.787  0.0000E+00  0.2240E+03
     -4.692  0.0000E+00  0.2240E+03
     -4.597  0.0000E+00  0.2240E+03
     -4.502  0.0000E+00  0.2240E+03
     -4.407  0.0000E+00  0.2240E+03
     -4.312  0.0000E+00  0.2240E+03
     -4.217  0.0000E+00  0.2240E+03
     -4.122  0.0000E+00  0.2240E+03
     -4.027  0.0000E+00  0.2240E+03
     -3.932  0.0000E+00  0.2240E+03
     -3.837  0.0000E+00  0.2240E+03
     -3.742  0.0000E+00  0.2240E+03
     -3.647  0.0000E+00  0.2240E+03
     -3.552  0.2557E+02  0.2394E+03
     -3.457  0.0000E+00  0.2560E+03
     -3.362  0.0000E+00  0.2560E+03
     -3.267  0.0000E+00  0.2560E+03
     -3.172  0.0000E+00  0.2560E+03
     -3.077  0.0000E+00  0.2560E+03
     -2.982  0.0000E+00  0.2560E+03
     -2.887  0.0000E+00  0.2560E+03
     -2.792  0.0000E+00  0.2560E+03
     -2.697  0.0000E+00  0.2560E+03
     -2.602  0.0000E+00  0.2560E+03
     -2.507  0.0000E+00  0.2560E+03
     -2.412  0.0000E+00  0.2560E+03
     -2.317  0.0000E+00  0.2560E+03
     -2.222  0.0000E+00  0.2560E+03
     -2.127  0.0000E+00  0.2560E+03
     -2.032  0.2937E+01  0.2584E+03
     -1.937  0.2448E+01  0.2614E+03
     -1.842  0.0000E+00  0.2635E+03
     -1.747  0.3119E+01  0.2659E+03
     -1.652  0.6239E+01  0.2684E+03
     -1.557  0.8960E+01  0.2724E+03
     -1.462  0.6313E+01  0.2754E+03
     -1.367  0.4679E+01  0.2787E+03
     -1.272  0.0000E+00  0.2796E+03
     -1.177  0.0000E+00  0.2800E+03
     -1.082  0.0000E+00  0.2800E+03
     -0.987  0.0000E+00  0.2807E+03
     -0.892  0.1299E+02  0.2845E+03
     -0.797  0.4737E+01  0.2910E+03
     -0.702  0.3119E+01  0.2961E+03
     -0.607  0.8226E+01  0.3019E+03
     -0.512  0.8948E+01  0.3054E+03
     -0.417  0.7546E+01  0.3084E+03
     -0.322  0.4673E+01  0.3138E+03
     -0.227  0.4679E+01  0.3199E+03
     -0.132  0.6873E+01  0.3269E+03
     -0.037  0.4440E-06  0.3327E+03
      0.058  0.2201E+01  0.3385E+03
      0.153  0.1477E+02  0.3475E+03
      0.248  0.7705E+01  0.3558E+03
      0.343  0.2805E+01  0.3619E+03
      0.438  0.7184E+01  0.3696E+03
      0.533  0.4122E+01  0.3800E+03
      0.628  0.6246E+01  0.3859E+03
      0.723  0.4579E+01  0.3913E+03
      0.818  0.2756E+01  0.3952E+03
      0.913  0.2557E+01  0.3974E+03
      1.008  0.1557E-10  0.3987E+03
      1.103  0.0000E+00  0.3993E+03
      1.198  0.1198E-04  0.3996E+03
      1.293  0.0000E+00  0.3999E+03
      1.388  0.0000E+00  0.3999E+03
      1.483  0.0000E+00  0.4000E+03
      1.578  0.0000E+00  0.4000E+03
      1.673  0.0000E+00  0.4000E+03
      1.768  0.0000E+00  0.4000E+03
      1.863  0.0000E+00  0.4000E+03
      1.958  0.0000E+00  0.4000E+03
      2.053  0.0000E+00  0.4000E+03
      2.148  0.0000E+00  0.4000E+03
      2.243  0.0000E+00  0.4000E+03
      2.338  0.0000E+00  0.4000E+03
      2.433  0.0000E+00  0.4000E+03
      2.528  0.0000E+00  0.4000E+03
      2.623  0.0000E+00  0.4000E+03
      2.717  0.0000E+00  0.4000E+03
      2.812  0.0000E+00  0.4000E+03
      2.907  0.0000E+00  0.4000E+03
      3.002  0.5654E-08  0.4002E+03
      3.097  0.0000E+00  0.4007E+03
      3.192  0.1560E+01  0.4013E+03
      3.287  0.0000E+00  0.4029E+03
      3.382  0.2270E-04  0.4036E+03
      3.477  0.0000E+00  0.4056E+03
      3.572  0.0000E+00  0.4066E+03
      3.667  0.0000E+00  0.4077E+03
      3.762  0.0000E+00  0.4083E+03
      3.857  0.0000E+00  0.4090E+03
      3.952  0.2536E-08  0.4096E+03
      4.047  0.0000E+00  0.4108E+03
      4.142  0.2353E+01  0.4130E+03
      4.237  0.0000E+00  0.4150E+03
      4.332  0.0000E+00  0.4166E+03
      4.427  0.9355E+01  0.4196E+03
      4.522  0.1560E+01  0.4225E+03
      4.617  0.1053E-11  0.4233E+03
      4.712  0.0000E+00  0.4239E+03
      4.807  0.0000E+00  0.4240E+03
      4.902  0.0000E+00  0.4240E+03
      4.997  0.0000E+00  0.4241E+03
      5.092  0.3037E-02  0.4241E+03
      5.187  0.0000E+00  0.4245E+03
      5.282  0.3119E+01  0.4260E+03
      5.377  0.1560E+01  0.4279E+03
      5.472  0.3836E+01  0.4304E+03
      5.567  0.7791E+01  0.4350E+03
      5.662  0.1560E+01  0.4379E+03
      5.757  0.3899E+01  0.4399E+03
      5.852  0.0000E+00  0.4421E+03
      5.947  0.5461E+01  0.4453E+03
      6.042  0.0000E+00  0.4486E+03
      6.137  0.2085E+00  0.4516E+03
      6.232  0.7786E+01  0.4576E+03
      6.327  0.3135E+01  0.4601E+03
      6.422  0.4538E+01  0.4636E+03
      6.517  0.4355E+01  0.4695E+03
      6.612  0.1560E+01  0.4744E+03
      6.707  0.3119E+01  0.4784E+03
      6.802  0.3723E-06  0.4813E+03
      6.897  0.2170E+00  0.4847E+03
      6.992  0.1560E+01  0.4897E+03
      7.087  0.1586E+01  0.4925E+03
      7.182  0.2339E+01  0.4979E+03
      7.277  0.2271E+00  0.5014E+03
      7.372  0.7754E+01  0.5056E+03
      7.467  0.4114E-12  0.5093E+03
      7.562  0.9230E+00  0.5113E+03
      7.657  0.0000E+00  0.5120E+03
      7.752  0.0000E+00  0.5120E+03
      7.847  0.0000E+00  0.5120E+03
      7.942  0.0000E+00  0.5120E+03
      8.037  0.0000E+00  0.5120E+03
      8.132  0.0000E+00  0.5120E+03
      8.227  0.0000E+00  0.5120E+03
      8.322  0.0000E+00  0.5120E+03
      8.417  0.0000E+00  0.5120E+03
      8.512  0.0000E+00  0.5120E+03
      8.607  0.0000E+00  0.5120E+03
      8.702  0.0000E+00  0.5120E+03
      8.797  0.0000E+00  0.5120E+03
      8.892  0.0000E+00  0.5120E+03
