       N       E                     dE             d eps       ncg     rms          rms(c)
DAV:   1     0.360351551503E+04    0.36035E+04   -0.18949E+05  7176   0.170E+03
DAV:   2     0.202089207779E+03   -0.34014E+04   -0.32068E+04  7976   0.355E+02
DAV:   3    -0.398539110460E+03   -0.60063E+03   -0.59103E+03  9496   0.172E+02
DAV:   4    -0.438706363424E+03   -0.40167E+02   -0.39994E+02  9568   0.489E+01
DAV:   5    -0.440227811942E+03   -0.15214E+01   -0.15192E+01  9768   0.928E+00    0.298E+01
DAV:   6    -0.419541266237E+03    0.20687E+02   -0.41822E+01  9464   0.103E+01    0.157E+01
DAV:   7    -0.417054044738E+03    0.24872E+01   -0.14685E+01 10288   0.638E+00    0.781E+00
DAV:   8    -0.416883884165E+03    0.17016E+00   -0.30233E+00  8616   0.317E+00    0.182E+00
DAV:   9    -0.416813117693E+03    0.70766E-01   -0.73859E-01  9272   0.173E+00    0.732E-01
DAV:  10    -0.416825189298E+03   -0.12072E-01   -0.10974E-01  8984   0.594E-01    0.448E-01
DAV:  11    -0.416825069341E+03    0.11996E-03   -0.12667E-02  9872   0.262E-01    0.200E-01
DAV:  12    -0.416826462445E+03   -0.13931E-02   -0.95695E-03  9792   0.156E-01    0.109E-01
DAV:  13    -0.416826585937E+03   -0.12349E-03   -0.14295E-03  8504   0.797E-02    0.727E-02
DAV:  14    -0.416826628930E+03   -0.42993E-04   -0.28076E-04  8496   0.291E-02    0.320E-02
DAV:  15    -0.416826673301E+03   -0.44371E-04   -0.15912E-04  8192   0.207E-02    0.118E-02
DAV:  16    -0.416826677525E+03   -0.42245E-05   -0.15248E-05 10632   0.756E-03    0.123E-02
DAV:  17    -0.416826677259E+03    0.26626E-06   -0.45295E-06  8208   0.375E-03    0.509E-03
DAV:  18    -0.416826677299E+03   -0.40167E-07   -0.87349E-06 10368   0.459E-03    0.403E-03
DAV:  19    -0.416826677247E+03    0.52438E-07   -0.88282E-07  8272   0.217E-03    0.233E-03
DAV:  20    -0.416826677271E+03   -0.24691E-07   -0.54711E-07  9496   0.110E-03    0.444E-04
DAV:  21    -0.416826677300E+03   -0.28704E-07   -0.43715E-08  8472   0.456E-04    0.294E-04
DAV:  22    -0.416826677295E+03    0.49731E-08   -0.46483E-09  7616   0.186E-04    0.229E-04
DAV:  23    -0.416826677299E+03   -0.43910E-08   -0.97458E-10  8920   0.113E-04    0.214E-04
DAV:  24    -0.416826677298E+03    0.12369E-08    0.11609E-09  7336   0.689E-05    0.189E-04
DAV:  25    -0.416826677296E+03    0.25939E-08    0.22699E-09  6152   0.384E-05    0.191E-04
DAV:  26    -0.416826677296E+03   -0.24374E-09    0.21616E-09  4736   0.245E-05    0.188E-04
DAV:  27    -0.416826677297E+03   -0.12478E-08    0.17498E-09  4264   0.221E-05    0.185E-04
DAV:  28    -0.416826677297E+03   -0.27285E-09    0.20913E-09  4232   0.210E-05    0.185E-04
DAV:  29    -0.416826677298E+03   -0.34561E-09    0.19052E-09  4216   0.140E-05    0.185E-04
DAV:  30    -0.416826677298E+03    0.12005E-09    0.14758E-09  4208   0.820E-06    0.185E-04
DAV:  31    -0.416826677298E+03    0.15280E-09    0.15566E-09  4208   0.569E-06    0.185E-04
DAV:  32    -0.416826677297E+03    0.10914E-10    0.13106E-09  4208   0.436E-06    0.185E-04
DAV:  33    -0.416826677297E+03    0.72760E-10    0.87848E-10  4208   0.489E-06
   1 F= -.41682668E+03 E0= -.41682668E+03  d E =0.000000E+00
