       N       E                     dE             d eps       ncg     rms          rms(c)
DAV:   1     0.422993581341E+04    0.42299E+04   -0.19302E+05 32544   0.146E+03
DAV:   2     0.844663200254E+03   -0.33853E+04   -0.31354E+04 35608   0.322E+02
DAV:   3     0.234660043168E+03   -0.61000E+03   -0.58978E+03 44056   0.157E+02
DAV:   4     0.188993789324E+03   -0.45666E+02   -0.44590E+02 44048   0.437E+01
DAV:   5     0.186703892226E+03   -0.22899E+01   -0.22813E+01 50392   0.998E+00    0.982E+01
DAV:   6     0.559080870639E+02   -0.13080E+03   -0.15205E+03 37072   0.504E+01    0.489E+01
DAV:   7    -0.936644017400E+02   -0.14957E+03   -0.15863E+02 39216   0.218E+01    0.284E+01
DAV:   8    -0.201958723792E+03   -0.10829E+03   -0.64435E+01 37480   0.130E+01    0.184E+01
DAV:   9    -0.334802053287E+03   -0.13284E+03   -0.12569E+02 36864   0.163E+01    0.915E+00
DAV:  10    -0.381828689456E+03   -0.47027E+02   -0.47235E+01 37080   0.102E+01    0.663E+00
DAV:  11    -0.410162184182E+03   -0.28333E+02   -0.38430E+01 37672   0.819E+00    0.382E+00
DAV:  12    -0.421197817445E+03   -0.11036E+02   -0.17246E+01 41024   0.544E+00    0.254E+00
DAV:  13    -0.422846108305E+03   -0.16483E+01   -0.25275E+00 39904   0.259E+00    0.208E+00
DAV:  14    -0.423491281149E+03   -0.64517E+00   -0.94247E-01 38784   0.135E+00    0.114E+00
DAV:  15    -0.423545669509E+03   -0.54388E-01   -0.17898E-01 42432   0.714E-01    0.638E-01
DAV:  16    -0.423552414605E+03   -0.67451E-02   -0.28979E-02 41576   0.315E-01    0.402E-01
DAV:  17    -0.423555680878E+03   -0.32663E-02   -0.10007E-02 39024   0.170E-01    0.225E-01
DAV:  18    -0.423557347069E+03   -0.16662E-02   -0.27766E-03 40008   0.933E-02    0.827E-02
DAV:  19    -0.423557736316E+03   -0.38925E-03   -0.66775E-04 40552   0.503E-02    0.457E-02
DAV:  20    -0.423557983832E+03   -0.24752E-03   -0.20537E-04 38056   0.278E-02    0.248E-02
DAV:  21    -0.423558114628E+03   -0.13080E-03   -0.12923E-04 37928   0.191E-02    0.140E-02
DAV:  22    -0.423558123696E+03   -0.90683E-05   -0.18166E-05 44192   0.839E-03    0.976E-03
DAV:  23    -0.423558125138E+03   -0.14415E-05   -0.63196E-06 38728   0.394E-03    0.408E-03
DAV:  24    -0.423558127576E+03   -0.24385E-05   -0.26361E-06 34736   0.298E-03    0.166E-03
DAV:  25    -0.423558127702E+03   -0.12647E-06   -0.65433E-07 41880   0.141E-03    0.137E-03
DAV:  26    -0.423558127697E+03    0.56170E-08   -0.11518E-07 43928   0.704E-04    0.101E-03
DAV:  27    -0.423558127650E+03    0.47090E-07   -0.34044E-08 34520   0.399E-04    0.356E-04
DAV:  28    -0.423558127548E+03    0.10168E-06   -0.27481E-08 31392   0.320E-04    0.267E-04
DAV:  29    -0.423558127546E+03    0.18008E-08   -0.42445E-09 30320   0.160E-04
   1 F= -.42355813E+03 E0= -.42355813E+03  d E =0.000000E+00  mag=     0.0000     0.0000     0.0000
