       N       E                     dE             d eps       ncg     rms          ort
DAV:   1     0.393040835737E+05    0.39304E+05   -0.10851E+06  3528   0.494E+03
DAV:   2     0.964469961808E+04   -0.29659E+05   -0.29047E+05  3528   0.168E+03
DAV:   3     0.215385236743E+04   -0.74908E+04   -0.73134E+04  3528   0.533E+02
DAV:   4     0.497465707818E+03   -0.16564E+04   -0.15830E+04  3528   0.223E+02
DAV:   5     0.277169920721E+03   -0.22030E+03   -0.21639E+03  3528   0.863E+01
SDA:   6    -0.444470133510E+03   -0.72164E+03   -0.21639E+03  3528   0.125E+03 0.000E+00
CGA:   7    -0.466194888358E+03   -0.21725E+02   -0.21787E+02  3528   0.448E+02 0.813E+00
CGA:   8    -0.474849310326E+03   -0.86544E+01   -0.86547E+01  3528   0.949E+01-0.253E-01
CGA:   9    -0.477952391507E+03   -0.31031E+01   -0.31033E+01  3528   0.305E+01-0.135E-01
CGA:  10    -0.478912587953E+03   -0.96020E+00   -0.96126E+00  3528   0.111E+01-0.101E-01
CGA:  11    -0.479158059652E+03   -0.24547E+00   -0.24550E+00  3528   0.460E+00-0.193E-02
CGA:  12    -0.479285338781E+03   -0.12728E+00   -0.12741E+00  3528   0.117E+00-0.184E-02
CGA:  13    -0.479325285209E+03   -0.39946E-01   -0.40014E-01  3528   0.359E-01-0.472E-03
CGA:  14    -0.479336633377E+03   -0.11348E-01   -0.11351E-01  3528   0.145E-01-0.128E-04
CGA:  15    -0.479339903447E+03   -0.32701E-02   -0.32699E-02  3528   0.681E-02-0.258E-03
CGA:  16    -0.479341638040E+03   -0.17346E-02   -0.17333E-02  3528   0.207E-02 0.401E-04
CGA:  17    -0.479342399118E+03   -0.76108E-03   -0.76870E-03  3528   0.775E-03-0.533E-04
CGA:  18    -0.479342657815E+03   -0.25870E-03   -0.25785E-03  3528   0.277E-03 0.810E-05
