 running on 1344 total cores
 distrk:  each k-point on   96 cores,   14 groups
 distr:  one band on   24 cores,    4 groups
 using from now: INCAR     
 vasp.5.4.1 24Jun15 (build Nov 25 2015 16:01:35) complex                        
  
 POSCAR found type information on POSCAR  C  N  H  Pb I 
 POSCAR found :  5 types and      96 ions
 scaLAPACK will be used

 ----------------------------------------------------------------------------- 
|                                                                             |
|           W    W    AA    RRRRR   N    N  II  N    N   GGGG   !!!           |
|           W    W   A  A   R    R  NN   N  II  NN   N  G    G  !!!           |
|           W    W  A    A  R    R  N N  N  II  N N  N  G       !!!           |
|           W WW W  AAAAAA  RRRRR   N  N N  II  N  N N  G  GGG   !            |
|           WW  WW  A    A  R   R   N   NN  II  N   NN  G    G                |
|           W    W  A    A  R    R  N    N  II  N    N   GGGG   !!!           |
|                                                                             |
|      You have enabled k-point parallelism (KPAR>1).                         |
|      This developmental code was originally  written by Paul Kent at ORNL,  |
|      and carefully double checked in Vienna.                                |
|      GW as well as linear response parallelism added by Martijn Marsman     |
|      and Georg Kresse.                                                      |
|      Carefully verify results versus KPAR=1.                                |
|      Report problems to Paul Kent and Vienna.                               |
|                                                                             |
 ----------------------------------------------------------------------------- 


 ----------------------------------------------------------------------------- 
|                                                                             |
|  ADVICE TO THIS USER RUNNING 'VASP/VAMP'   (HEAR YOUR MASTER'S VOICE ...):  |
|                                                                             |
|      You have a (more or less) 'large supercell' and for larger cells       |
|      it might be more efficient to use real space projection opertators     |
|      So try LREAL= Auto  in the INCAR   file.                               |
|      Mind: At the moment your POTCAR file does not contain real space       |
|       projectors, and has to be modified,  BUT if you                       |
|      want to do an extremely  accurate calculation you might also keep the  |
|      reciprocal projection scheme          (i.e. LREAL=.FALSE.)             |
|                                                                             |
 ----------------------------------------------------------------------------- 

 LDA part: xc-table for Pade appr. of Perdew
 POSCAR, INCAR and KPOINTS ok, starting setup
 WARNING: small aliasing (wrap around) errors must be expected
 FFT: planning ...
 WAVECAR not read
 entering main loop
       N       E                     dE             d eps       ncg     rms          ort
DAV:   1     0.393040835737E+05    0.39304E+05   -0.10851E+06  3528   0.494E+03
DAV:   2     0.964469961808E+04   -0.29659E+05   -0.29047E+05  3528   0.168E+03
DAV:   3     0.215385236743E+04   -0.74908E+04   -0.73134E+04  3528   0.533E+02
DAV:   4     0.497465707818E+03   -0.16564E+04   -0.15830E+04  3528   0.223E+02
DAV:   5     0.277169920721E+03   -0.22030E+03   -0.21639E+03  3528   0.863E+01
 gam= 0.000 g(H,U,f)=  0.120E+03 0.508E+01 0.000E+00 ort(H,U,f) = 0.000E+00 0.000E+00 0.000E+00
SDA:   6    -0.444470133510E+03   -0.72164E+03   -0.21639E+03  3528   0.125E+03 0.000E+00
 gam= 0.000 trial= 0.400  step= 0.349 mean= 0.400
 gam= 0.359 g(H,U,f)=  0.432E+02 0.156E+01 0.000E+00 ort(H,U,f) =-0.166E+01 0.247E+01 0.000E+00
CGA:   7    -0.466194888358E+03   -0.21725E+02   -0.21787E+02  3528   0.448E+02 0.813E+00
 gam= 0.359 trial= 0.397  step= 0.384 mean= 0.397
 gam= 0.212 g(H,U,f)=  0.912E+01 0.370E+00 0.000E+00 ort(H,U,f) =-0.913E+00 0.887E+00 0.000E+00
CGA:   8    -0.474849310326E+03   -0.86544E+01   -0.86547E+01  3528   0.949E+01-0.253E-01
 gam= 0.212 trial= 0.397  step= 0.654 mean= 0.397
 gam= 0.321 g(H,U,f)=  0.290E+01 0.145E+00 0.000E+00 ort(H,U,f) =-0.328E+00 0.314E+00 0.000E+00
CGA:   9    -0.477952391507E+03   -0.31031E+01   -0.31033E+01  3528   0.305E+01-0.135E-01
 gam= 0.321 trial= 0.410  step= 0.631 mean= 0.410
 gam= 0.365 g(H,U,f)=  0.107E+01 0.456E-01 0.242-220 ort(H,U,f) =-0.136E+00 0.126E+00 0.711-220
CGA:  10    -0.478912587953E+03   -0.96020E+00   -0.96126E+00  3528   0.111E+01-0.101E-01
 gam= 0.365 trial= 0.421  step= 0.443 mean= 0.421
 gam= 0.413 g(H,U,f)=  0.440E+00 0.197E-01 0.000E+00 ort(H,U,f) =-0.553E-01 0.534E-01 0.000E+00
CGA:  11    -0.479158059652E+03   -0.24547E+00   -0.24550E+00  3528   0.460E+00-0.193E-02
 gam= 0.413 trial= 0.422  step= 0.555 mean= 0.422
 gam= 0.254 g(H,U,f)=  0.112E+00 0.433E-02 0.000E+00 ort(H,U,f) =-0.193E-01 0.174E-01 0.000E+00
CGA:  12    -0.479285338781E+03   -0.12728E+00   -0.12741E+00  3528   0.117E+00-0.184E-02
 gam= 0.254 trial= 0.429  step= 0.689 mean= 0.429
 gam= 0.308 g(H,U,f)=  0.349E-01 0.988E-03 0.000E+00 ort(H,U,f) =-0.435E-02 0.387E-02 0.000E+00
CGA:  13    -0.479325285209E+03   -0.39946E-01   -0.40014E-01  3528   0.359E-01-0.472E-03
 gam= 0.308 trial= 0.442  step= 0.635 mean= 0.442
 gam= 0.405 g(H,U,f)=  0.142E-01 0.289E-03 0.156E-14 ort(H,U,f) =-0.102E-02 0.100E-02 0.149E-13
CGA:  14    -0.479336633377E+03   -0.11348E-01   -0.11351E-01  3528   0.145E-01-0.128E-04
 gam= 0.405 trial= 0.451  step= 0.450 mean= 0.451
 gam= 0.468 g(H,U,f)=  0.672E-02 0.852E-04 0.000E+00 ort(H,U,f) =-0.502E-03 0.244E-03 0.000E+00
CGA:  15    -0.479339903447E+03   -0.32701E-02   -0.32699E-02  3528   0.681E-02-0.258E-03
 gam= 0.468 trial= 0.451  step= 0.519 mean= 0.451
 gam= 0.304 g(H,U,f)=  0.204E-02 0.306E-04 0.000E+00 ort(H,U,f) =-0.209E-04 0.610E-04 0.000E+00
CGA:  16    -0.479341638040E+03   -0.17346E-02   -0.17333E-02  3528   0.207E-02 0.401E-04
 gam= 0.304 trial= 0.455  step= 0.739 mean= 0.455
 gam= 0.375 g(H,U,f)=  0.762E-03 0.128E-04 0.000E+00 ort(H,U,f) =-0.579E-04 0.455E-05 0.000E+00
CGA:  17    -0.479342399118E+03   -0.76108E-03   -0.76870E-03  3528   0.775E-03-0.533E-04
 gam= 0.375 trial= 0.469  step= 0.683 mean= 0.469
 gam= 0.357 g(H,U,f)=  0.270E-03 0.672E-05 0.105E-33 ort(H,U,f) = 0.344E-05 0.466E-05 0.131E-33
CGA:  18    -0.479342657815E+03   -0.25870E-03   -0.25785E-03  3528   0.277E-03 0.810E-05
 gam= 0.357 trial= 0.479  step= 0.663 mean= 0.479
Application 22201572 exit codes: 1
Application 22201572 resources: utime ~604810s, stime ~1255s, Rss ~452888, inblocks ~5355387, outblocks ~10846694
