   2   2   1   0
  0.3405476E+02  0.4583961E-09  0.4583961E-09  0.4583961E-09  0.5000000E-15
  1.000000000000000E-004
  CAR 
 Name                                    
     16.43291519    -11.58384217  301      1.88754866      1.00000000
    -11.584  0.0000E+00  0.0000E+00
    -11.490  0.0000E+00  0.0000E+00
    -11.397  0.0000E+00  0.0000E+00
    -11.304  0.0000E+00  0.0000E+00
    -11.210  0.0000E+00  0.0000E+00
    -11.117  0.0000E+00  0.0000E+00
    -11.024  0.0000E+00  0.0000E+00
    -10.930  0.0000E+00  0.0000E+00
    -10.837  0.0000E+00  0.0000E+00
    -10.743  0.0000E+00  0.0000E+00
    -10.650  0.0000E+00  0.0000E+00
    -10.557  0.0000E+00  0.0000E+00
    -10.463  0.0000E+00  0.0000E+00
    -10.370  0.0000E+00  0.0000E+00
    -10.276  0.9915E-01  0.9259E-02
    -10.183  0.8521E+00  0.8883E-01
    -10.090  0.2342E-01  0.1411E+00
     -9.996  0.4292E+01  0.5419E+00
     -9.903  0.3776E+01  0.8990E+00
     -9.809  0.6908E+01  0.1951E+01
     -9.716  0.0000E+00  0.2000E+01
     -9.623  0.0000E+00  0.2000E+01
     -9.529  0.0000E+00  0.2000E+01
     -9.436  0.0000E+00  0.2000E+01
     -9.343  0.0000E+00  0.2000E+01
     -9.249  0.0000E+00  0.2000E+01
     -9.156  0.0000E+00  0.2000E+01
     -9.062  0.0000E+00  0.2000E+01
     -8.969  0.0000E+00  0.2000E+01
     -8.876  0.0000E+00  0.2000E+01
     -8.782  0.0000E+00  0.2000E+01
     -8.689  0.0000E+00  0.2000E+01
     -8.595  0.0000E+00  0.2000E+01
     -8.502  0.0000E+00  0.2000E+01
     -8.409  0.0000E+00  0.2000E+01
     -8.315  0.0000E+00  0.2000E+01
     -8.222  0.0000E+00  0.2000E+01
     -8.128  0.0000E+00  0.2000E+01
     -8.035  0.0000E+00  0.2000E+01
     -7.942  0.0000E+00  0.2000E+01
     -7.848  0.0000E+00  0.2000E+01
     -7.755  0.1151E+00  0.2011E+01
     -7.661  0.2203E+02  0.4086E+01
     -7.568  0.1370E+02  0.6197E+01
     -7.475  0.3578E+02  0.9565E+01
     -7.381  0.1482E+01  0.1025E+02
     -7.288  0.3172E+01  0.1055E+02
     -7.195  0.5822E+00  0.1060E+02
     -7.101  0.1501E+01  0.1074E+02
     -7.008  0.4226E+01  0.1122E+02
     -6.914  0.1910E+01  0.1148E+02
     -6.821  0.3868E+01  0.1189E+02
     -6.728  0.1189E+01  0.1200E+02
     -6.634  0.0000E+00  0.1200E+02
     -6.541  0.0000E+00  0.1200E+02
     -6.447  0.0000E+00  0.1200E+02
     -6.354  0.0000E+00  0.1200E+02
     -6.261  0.0000E+00  0.1200E+02
     -6.167  0.0000E+00  0.1200E+02
     -6.074  0.0000E+00  0.1200E+02
     -5.980  0.0000E+00  0.1200E+02
     -5.887  0.0000E+00  0.1200E+02
     -5.794  0.0000E+00  0.1200E+02
     -5.700  0.0000E+00  0.1200E+02
     -5.607  0.0000E+00  0.1200E+02
     -5.514  0.0000E+00  0.1200E+02
     -5.420  0.0000E+00  0.1200E+02
     -5.327  0.0000E+00  0.1200E+02
     -5.233  0.0000E+00  0.1200E+02
     -5.140  0.0000E+00  0.1200E+02
     -5.047  0.0000E+00  0.1200E+02
     -4.953  0.0000E+00  0.1200E+02
     -4.860  0.0000E+00  0.1200E+02
     -4.766  0.0000E+00  0.1200E+02
     -4.673  0.0000E+00  0.1200E+02
     -4.580  0.0000E+00  0.1200E+02
     -4.486  0.0000E+00  0.1200E+02
     -4.393  0.0000E+00  0.1200E+02
     -4.299  0.0000E+00  0.1200E+02
     -4.206  0.0000E+00  0.1200E+02
     -4.113  0.0000E+00  0.1200E+02
     -4.019  0.0000E+00  0.1200E+02
     -3.926  0.0000E+00  0.1200E+02
     -3.833  0.0000E+00  0.1200E+02
     -3.739  0.0000E+00  0.1200E+02
     -3.646  0.0000E+00  0.1200E+02
     -3.552  0.0000E+00  0.1200E+02
     -3.459  0.0000E+00  0.1200E+02
     -3.366  0.0000E+00  0.1200E+02
     -3.272  0.0000E+00  0.1200E+02
     -3.179  0.0000E+00  0.1200E+02
     -3.085  0.0000E+00  0.1200E+02
     -2.992  0.0000E+00  0.1200E+02
     -2.899  0.3485E+00  0.1203E+02
     -2.805  0.1517E-06  0.1204E+02
     -2.712  0.2974E+00  0.1206E+02
     -2.618  0.3649E+01  0.1241E+02
     -2.525  0.3447E+01  0.1294E+02
     -2.432  0.3685E-13  0.1295E+02
     -2.338  0.2380E+01  0.1318E+02
     -2.245  0.7925E-15  0.1318E+02
     -2.152  0.2380E+01  0.1340E+02
     -2.058  0.0000E+00  0.1340E+02
     -1.965  0.7877E+00  0.1347E+02
     -1.871  0.4214E-02  0.1347E+02
     -1.778  0.5907E+00  0.1353E+02
     -1.685  0.0000E+00  0.1353E+02
     -1.591  0.0000E+00  0.1353E+02
     -1.498  0.6198E-04  0.1353E+02
     -1.404  0.2379E+01  0.1375E+02
     -1.311  0.0000E+00  0.1375E+02
     -1.218  0.0000E+00  0.1375E+02
     -1.124  0.0000E+00  0.1375E+02
     -1.031  0.1176E-01  0.1375E+02
     -0.937  0.2368E+01  0.1397E+02
     -0.844  0.0000E+00  0.1397E+02
     -0.751  0.1285E-04  0.1397E+02
     -0.657  0.2380E+01  0.1419E+02
     -0.564  0.6101E-01  0.1420E+02
     -0.471  0.1616E+01  0.1446E+02
     -0.377  0.2344E+01  0.1475E+02
     -0.284  0.0000E+00  0.1486E+02
     -0.190  0.4866E-03  0.1486E+02
     -0.097  0.5944E+00  0.1492E+02
     -0.004  0.2380E+01  0.1514E+02
      0.090  0.3497E+01  0.1547E+02
      0.183  0.2380E+01  0.1594E+02
      0.277  0.1190E+01  0.1605E+02
      0.370  0.2277E-10  0.1605E+02
      0.463  0.3569E+01  0.1638E+02
      0.557  0.1190E+01  0.1649E+02
      0.650  0.5772E+00  0.1654E+02
      0.744  0.3087E+00  0.1696E+02
      0.837  0.0000E+00  0.1716E+02
      0.930  0.8360E-11  0.1716E+02
      1.024  0.3172E+01  0.1745E+02
      1.117  0.0000E+00  0.1745E+02
      1.210  0.2772E+01  0.1771E+02
      1.304  0.0000E+00  0.1771E+02
      1.397  0.0000E+00  0.1771E+02
      1.491  0.1190E+01  0.1782E+02
      1.584  0.2862E+00  0.1785E+02
      1.677  0.0000E+00  0.1797E+02
      1.771  0.0000E+00  0.1797E+02
      1.864  0.2974E+00  0.1800E+02
      1.958  0.0000E+00  0.1800E+02
      2.051  0.0000E+00  0.1800E+02
      2.144  0.0000E+00  0.1800E+02
      2.238  0.0000E+00  0.1800E+02
      2.331  0.0000E+00  0.1800E+02
      2.425  0.0000E+00  0.1800E+02
      2.518  0.0000E+00  0.1800E+02
      2.611  0.0000E+00  0.1800E+02
      2.705  0.0000E+00  0.1800E+02
      2.798  0.0000E+00  0.1800E+02
      2.891  0.0000E+00  0.1800E+02
      2.985  0.0000E+00  0.1800E+02
      3.078  0.0000E+00  0.1800E+02
      3.172  0.0000E+00  0.1800E+02
      3.265  0.0000E+00  0.1800E+02
      3.358  0.7169E-03  0.1800E+02
      3.452  0.9843E-01  0.1801E+02
      3.545  0.0000E+00  0.1801E+02
      3.639  0.0000E+00  0.1801E+02
      3.732  0.0000E+00  0.1801E+02
      3.825  0.0000E+00  0.1801E+02
      3.919  0.0000E+00  0.1801E+02
      4.012  0.0000E+00  0.1801E+02
      4.106  0.0000E+00  0.1801E+02
      4.199  0.0000E+00  0.1801E+02
      4.292  0.0000E+00  0.1801E+02
      4.386  0.1321E-15  0.1801E+02
      4.479  0.1188E+01  0.1812E+02
      4.572  0.7479E+00  0.1819E+02
      4.666  0.0000E+00  0.1819E+02
      4.759  0.0000E+00  0.1819E+02
      4.853  0.0000E+00  0.1819E+02
      4.946  0.0000E+00  0.1819E+02
      5.039  0.0000E+00  0.1819E+02
      5.133  0.8793E+00  0.1828E+02
      5.226  0.0000E+00  0.1828E+02
      5.320  0.4118E+00  0.1832E+02
      5.413  0.3011E+01  0.1864E+02
      5.506  0.3186E+01  0.1899E+02
      5.600  0.2379E+01  0.1936E+02
      5.693  0.1178E+01  0.1947E+02
      5.787  0.5945E+00  0.1953E+02
      5.880  0.0000E+00  0.1953E+02
      5.973  0.0000E+00  0.1953E+02
      6.067  0.0000E+00  0.1953E+02
      6.160  0.0000E+00  0.1953E+02
      6.253  0.0000E+00  0.1953E+02
      6.347  0.3573E+01  0.1986E+02
      6.440  0.8042E+00  0.2021E+02
      6.534  0.0000E+00  0.2047E+02
      6.627  0.0000E+00  0.2047E+02
      6.720  0.2348E+01  0.2069E+02
      6.814  0.2380E+01  0.2092E+02
      6.907  0.0000E+00  0.2092E+02
      7.001  0.0000E+00  0.2092E+02
      7.094  0.0000E+00  0.2092E+02
      7.187  0.4491E-14  0.2092E+02
      7.281  0.2380E+01  0.2114E+02
      7.374  0.3270E+01  0.2144E+02
      7.468  0.7932E+00  0.2157E+02
      7.561  0.8406E-10  0.2157E+02
      7.654  0.2499E+01  0.2181E+02
      7.748  0.0000E+00  0.2194E+02
      7.841  0.2741E-09  0.2194E+02
      7.934  0.3326E+01  0.2226E+02
      8.028  0.2378E+01  0.2261E+02
      8.121  0.0000E+00  0.2261E+02
      8.215  0.7196E+00  0.2268E+02
      8.308  0.3286E+00  0.2275E+02
      8.401  0.3791E+01  0.2319E+02
      8.495  0.8077E-08  0.2328E+02
      8.588  0.2380E+01  0.2350E+02
      8.682  0.3644E+00  0.2353E+02
      8.775  0.0000E+00  0.2372E+02
      8.868  0.3309E-06  0.2372E+02
      8.962  0.2380E+01  0.2394E+02
      9.055  0.7926E+00  0.2402E+02
      9.149  0.2360E+01  0.2424E+02
      9.242  0.0000E+00  0.2424E+02
      9.335  0.3366E-02  0.2424E+02
      9.429  0.2376E+01  0.2446E+02
      9.522  0.1190E+01  0.2457E+02
      9.616  0.0000E+00  0.2457E+02
      9.709  0.1188E+01  0.2469E+02
      9.802  0.4593E+01  0.2511E+02
      9.896  0.5949E+00  0.2522E+02
      9.989  0.6815E-12  0.2522E+02
     10.082  0.2380E+01  0.2544E+02
     10.176  0.5949E+00  0.2550E+02
     10.269  0.1517E-01  0.2550E+02
     10.363  0.3653E+01  0.2584E+02
     10.456  0.2379E+01  0.2606E+02
     10.549  0.1106E-07  0.2606E+02
     10.643  0.2380E+01  0.2629E+02
     10.736  0.2375E+01  0.2651E+02
     10.830  0.1724E+00  0.2653E+02
     10.923  0.7928E+00  0.2681E+02
     11.016  0.4093E+00  0.2684E+02
     11.110  0.0000E+00  0.2703E+02
     11.203  0.6313E-04  0.2703E+02
     11.297  0.4086E+01  0.2741E+02
     11.390  0.0000E+00  0.2747E+02
     11.483  0.0000E+00  0.2747E+02
     11.577  0.1385E+00  0.2749E+02
     11.670  0.6422E+00  0.2757E+02
     11.763  0.1586E+01  0.2788E+02
     11.857  0.2673E+01  0.2813E+02
     11.950  0.0000E+00  0.2813E+02
     12.044  0.1156E-06  0.2813E+02
     12.137  0.4772E+01  0.2858E+02
     12.230  0.1375E+01  0.2870E+02
     12.324  0.0000E+00  0.2870E+02
     12.417  0.2728E-01  0.2871E+02
     12.511  0.0000E+00  0.2876E+02
     12.604  0.2930E+00  0.2879E+02
     12.697  0.3595E+01  0.2932E+02
     12.791  0.1164E+01  0.2943E+02
     12.884  0.1560E-07  0.2943E+02
     12.978  0.2380E+01  0.2965E+02
     13.071  0.0000E+00  0.2965E+02
     13.164  0.5949E+00  0.2970E+02
     13.258  0.5483E+01  0.3022E+02
     13.351  0.2375E+01  0.3044E+02
     13.444  0.2380E+01  0.3067E+02
     13.538  0.0000E+00  0.3067E+02
     13.631  0.2050E+01  0.3086E+02
     13.725  0.1353E+00  0.3090E+02
     13.818  0.0000E+00  0.3092E+02
     13.911  0.0000E+00  0.3092E+02
     14.005  0.0000E+00  0.3092E+02
     14.098  0.1189E+01  0.3103E+02
     14.192  0.2377E+01  0.3125E+02
     14.285  0.1266E-09  0.3125E+02
     14.378  0.1190E+01  0.3136E+02
     14.472  0.2821E+01  0.3162E+02
     14.565  0.0000E+00  0.3183E+02
     14.659  0.0000E+00  0.3183E+02
     14.752  0.0000E+00  0.3183E+02
     14.845  0.0000E+00  0.3183E+02
     14.939  0.0000E+00  0.3183E+02
     15.032  0.5949E+00  0.3189E+02
     15.125  0.9316E-06  0.3189E+02
     15.219  0.1190E+01  0.3200E+02
     15.312  0.0000E+00  0.3200E+02
     15.406  0.0000E+00  0.3200E+02
     15.499  0.0000E+00  0.3200E+02
     15.592  0.0000E+00  0.3200E+02
     15.686  0.0000E+00  0.3200E+02
     15.779  0.0000E+00  0.3200E+02
     15.873  0.0000E+00  0.3200E+02
     15.966  0.0000E+00  0.3200E+02
     16.059  0.0000E+00  0.3200E+02
     16.153  0.0000E+00  0.3200E+02
     16.246  0.0000E+00  0.3200E+02
     16.340  0.0000E+00  0.3200E+02
     16.433  0.0000E+00  0.3200E+02
     16.43291519    -11.58384217  301      1.88754866      1.00000000
    -11.584  0.0000E+00  0.0000E+00  0.0000E+00
    -11.490  0.0000E+00  0.0000E+00  0.0000E+00
    -11.397  0.0000E+00  0.0000E+00  0.0000E+00
    -11.304  0.0000E+00  0.0000E+00  0.0000E+00
    -11.210  0.0000E+00  0.0000E+00  0.0000E+00
    -11.117  0.0000E+00  0.0000E+00  0.0000E+00
    -11.024  0.0000E+00  0.0000E+00  0.0000E+00
    -10.930  0.0000E+00  0.0000E+00  0.0000E+00
    -10.837  0.0000E+00  0.0000E+00  0.0000E+00
    -10.743  0.0000E+00  0.0000E+00  0.0000E+00
    -10.650  0.0000E+00  0.0000E+00  0.0000E+00
    -10.557  0.0000E+00  0.0000E+00  0.0000E+00
    -10.463  0.0000E+00  0.0000E+00  0.0000E+00
    -10.370  0.0000E+00  0.0000E+00  0.0000E+00
    -10.276  0.6411E-02  0.8093E-15  0.1675E-14
    -10.183  0.4549E-01  0.2231E-02  0.2272E-01
    -10.090  0.8826E-03  0.1391E-03  0.1639E-02
     -9.996  0.1355E+00  0.3055E-01  0.3819E+00
     -9.903  0.6042E-01  0.3749E-01  0.5361E+00
     -9.809  0.2409E-01  0.8403E-01  0.1295E+01
     -9.716  0.0000E+00  0.0000E+00  0.0000E+00
     -9.623  0.0000E+00  0.0000E+00  0.0000E+00
     -9.529  0.0000E+00  0.0000E+00  0.0000E+00
     -9.436  0.0000E+00  0.0000E+00  0.0000E+00
     -9.343  0.0000E+00  0.0000E+00  0.0000E+00
     -9.249  0.0000E+00  0.0000E+00  0.0000E+00
     -9.156  0.0000E+00  0.0000E+00  0.0000E+00
     -9.062  0.0000E+00  0.0000E+00  0.0000E+00
     -8.969  0.0000E+00  0.0000E+00  0.0000E+00
     -8.876  0.0000E+00  0.0000E+00  0.0000E+00
     -8.782  0.0000E+00  0.0000E+00  0.0000E+00
     -8.689  0.0000E+00  0.0000E+00  0.0000E+00
     -8.595  0.0000E+00  0.0000E+00  0.0000E+00
     -8.502  0.0000E+00  0.0000E+00  0.0000E+00
     -8.409  0.0000E+00  0.0000E+00  0.0000E+00
     -8.315  0.0000E+00  0.0000E+00  0.0000E+00
     -8.222  0.0000E+00  0.0000E+00  0.0000E+00
     -8.128  0.0000E+00  0.0000E+00  0.0000E+00
     -8.035  0.0000E+00  0.0000E+00  0.0000E+00
     -7.942  0.0000E+00  0.0000E+00  0.0000E+00
     -7.848  0.0000E+00  0.0000E+00  0.0000E+00
     -7.755  0.1266E-15  0.3127E-04  0.1053E+00
     -7.661  0.1655E-02  0.7232E-02  0.2035E+02
     -7.568  0.4946E-02  0.4800E-02  0.1275E+02
     -7.475  0.1189E-01  0.5012E-03  0.3382E+02
     -7.381  0.7533E-02  0.2873E-03  0.1342E+01
     -7.288  0.3483E-01  0.2634E-02  0.2661E+01
     -7.195  0.6632E-02  0.1230E-02  0.4655E+00
     -7.101  0.1540E-01  0.3329E-02  0.1205E+01
     -7.008  0.3780E-01  0.1196E-01  0.3353E+01
     -6.914  0.8931E-02  0.9174E-02  0.1462E+01
     -6.821  0.1326E-01  0.1818E-01  0.2983E+01
     -6.728  0.3137E-12  0.7065E-02  0.9023E+00
     -6.634  0.0000E+00  0.0000E+00  0.0000E+00
     -6.541  0.0000E+00  0.0000E+00  0.0000E+00
     -6.447  0.0000E+00  0.0000E+00  0.0000E+00
     -6.354  0.0000E+00  0.0000E+00  0.0000E+00
     -6.261  0.0000E+00  0.0000E+00  0.0000E+00
     -6.167  0.0000E+00  0.0000E+00  0.0000E+00
     -6.074  0.0000E+00  0.0000E+00  0.0000E+00
     -5.980  0.0000E+00  0.0000E+00  0.0000E+00
     -5.887  0.0000E+00  0.0000E+00  0.0000E+00
     -5.794  0.0000E+00  0.0000E+00  0.0000E+00
     -5.700  0.0000E+00  0.0000E+00  0.0000E+00
     -5.607  0.0000E+00  0.0000E+00  0.0000E+00
     -5.514  0.0000E+00  0.0000E+00  0.0000E+00
     -5.420  0.0000E+00  0.0000E+00  0.0000E+00
     -5.327  0.0000E+00  0.0000E+00  0.0000E+00
     -5.233  0.0000E+00  0.0000E+00  0.0000E+00
     -5.140  0.0000E+00  0.0000E+00  0.0000E+00
     -5.047  0.0000E+00  0.0000E+00  0.0000E+00
     -4.953  0.0000E+00  0.0000E+00  0.0000E+00
     -4.860  0.0000E+00  0.0000E+00  0.0000E+00
     -4.766  0.0000E+00  0.0000E+00  0.0000E+00
     -4.673  0.0000E+00  0.0000E+00  0.0000E+00
     -4.580  0.0000E+00  0.0000E+00  0.0000E+00
     -4.486  0.0000E+00  0.0000E+00  0.0000E+00
     -4.393  0.0000E+00  0.0000E+00  0.0000E+00
     -4.299  0.0000E+00  0.0000E+00  0.0000E+00
     -4.206  0.0000E+00  0.0000E+00  0.0000E+00
     -4.113  0.0000E+00  0.0000E+00  0.0000E+00
     -4.019  0.0000E+00  0.0000E+00  0.0000E+00
     -3.926  0.0000E+00  0.0000E+00  0.0000E+00
     -3.833  0.0000E+00  0.0000E+00  0.0000E+00
     -3.739  0.0000E+00  0.0000E+00  0.0000E+00
     -3.646  0.0000E+00  0.0000E+00  0.0000E+00
     -3.552  0.0000E+00  0.0000E+00  0.0000E+00
     -3.459  0.0000E+00  0.0000E+00  0.0000E+00
     -3.366  0.0000E+00  0.0000E+00  0.0000E+00
     -3.272  0.0000E+00  0.0000E+00  0.0000E+00
     -3.179  0.0000E+00  0.0000E+00  0.0000E+00
     -3.085  0.0000E+00  0.0000E+00  0.0000E+00
     -2.992  0.0000E+00  0.0000E+00  0.0000E+00
     -2.899  0.5467E-01  0.9200E-02  0.1545E-04
     -2.805  0.3538E-07  0.6112E-22  0.3625E-08
     -2.712  0.6934E-01  0.2224E-10  0.7106E-02
     -2.618  0.7217E+00  0.5261E-01  0.3041E-01
     -2.525  0.7766E+00  0.1750E-01  0.5877E-01
     -2.432  0.6087E-14  0.8325E-15  0.6482E-15
     -2.338  0.3930E+00  0.5375E-01  0.4186E-01
     -2.245  0.1548E-15  0.9543E-17  0.2168E-16
     -2.152  0.4649E+00  0.2865E-01  0.6508E-01
     -2.058  0.0000E+00  0.0000E+00  0.0000E+00
     -1.965  0.1061E+00  0.2257E-01  0.2363E-01
     -1.871  0.8114E-03  0.2828E-04  0.2016E-03
     -1.778  0.1137E+00  0.3964E-02  0.2826E-01
     -1.685  0.0000E+00  0.0000E+00  0.0000E+00
     -1.591  0.0000E+00  0.0000E+00  0.0000E+00
     -1.498  0.9240E-05  0.1296E-05  0.2652E-05
     -1.404  0.3547E+00  0.4976E-01  0.1018E+00
     -1.311  0.0000E+00  0.0000E+00  0.0000E+00
     -1.218  0.0000E+00  0.0000E+00  0.0000E+00
     -1.124  0.0000E+00  0.0000E+00  0.0000E+00
     -1.031  0.1585E-02  0.2734E-03  0.5482E-03
     -0.937  0.1638E+00  0.1109E+00  0.8306E-01
     -0.844  0.0000E+00  0.0000E+00  0.0000E+00
     -0.751  0.2041E-06  0.8477E-06  0.3481E-06
     -0.657  0.3780E-01  0.1570E+00  0.6446E-01
     -0.564  0.1509E-03  0.4127E-02  0.1889E-02
     -0.471  0.9858E-02  0.1175E+00  0.3404E-01
     -0.377  0.1492E-01  0.1762E+00  0.4110E-01
     -0.284  0.0000E+00  0.0000E+00  0.0000E+00
     -0.190  0.5597E-18  0.3817E-04  0.7406E-05
     -0.097  0.1429E-10  0.4663E-01  0.9046E-02
     -0.004  0.6310E-01  0.1440E+00  0.7987E-01
      0.090  0.1433E+00  0.1934E+00  0.1220E+00
      0.183  0.3027E-02  0.1725E+00  0.6430E-01
      0.277  0.1147E-14  0.8636E-01  0.3225E-01
      0.370  0.2705E-25  0.1617E-11  0.6773E-12
      0.463  0.9043E-02  0.2448E+00  0.1160E+00
      0.557  0.1423E-01  0.7154E-01  0.4836E-01
      0.650  0.7820E-02  0.3410E-01  0.2348E-01
      0.744  0.9005E-14  0.1957E-01  0.1239E-01
      0.837  0.0000E+00  0.0000E+00  0.0000E+00
      0.930  0.2093E-25  0.5035E-12  0.3597E-12
      1.024  0.6413E-14  0.1908E+00  0.1363E+00
      1.117  0.0000E+00  0.0000E+00  0.0000E+00
      1.210  0.2453E-14  0.1473E+00  0.1400E+00
      1.304  0.0000E+00  0.0000E+00  0.0000E+00
      1.397  0.0000E+00  0.0000E+00  0.0000E+00
      1.491  0.3632E-14  0.5421E-01  0.6727E-01
      1.584  0.2794E-15  0.1120E-01  0.1783E-01
      1.677  0.0000E+00  0.0000E+00  0.0000E+00
      1.771  0.0000E+00  0.0000E+00  0.0000E+00
      1.864  0.1326E-14  0.8337E-02  0.2095E-01
      1.958  0.0000E+00  0.0000E+00  0.0000E+00
      2.051  0.0000E+00  0.0000E+00  0.0000E+00
      2.144  0.0000E+00  0.0000E+00  0.0000E+00
      2.238  0.0000E+00  0.0000E+00  0.0000E+00
      2.331  0.0000E+00  0.0000E+00  0.0000E+00
      2.425  0.0000E+00  0.0000E+00  0.0000E+00
      2.518  0.0000E+00  0.0000E+00  0.0000E+00
      2.611  0.0000E+00  0.0000E+00  0.0000E+00
      2.705  0.0000E+00  0.0000E+00  0.0000E+00
      2.798  0.0000E+00  0.0000E+00  0.0000E+00
      2.891  0.0000E+00  0.0000E+00  0.0000E+00
      2.985  0.0000E+00  0.0000E+00  0.0000E+00
      3.078  0.0000E+00  0.0000E+00  0.0000E+00
      3.172  0.0000E+00  0.0000E+00  0.0000E+00
      3.265  0.0000E+00  0.0000E+00  0.0000E+00
      3.358  0.2118E-03  0.2045E-17  0.1484E-17
      3.452  0.2908E-01  0.2808E-15  0.2037E-15
      3.545  0.0000E+00  0.0000E+00  0.0000E+00
      3.639  0.0000E+00  0.0000E+00  0.0000E+00
      3.732  0.0000E+00  0.0000E+00  0.0000E+00
      3.825  0.0000E+00  0.0000E+00  0.0000E+00
      3.919  0.0000E+00  0.0000E+00  0.0000E+00
      4.012  0.0000E+00  0.0000E+00  0.0000E+00
      4.106  0.0000E+00  0.0000E+00  0.0000E+00
      4.199  0.0000E+00  0.0000E+00  0.0000E+00
      4.292  0.0000E+00  0.0000E+00  0.0000E+00
      4.386  0.3276E-16  0.3824E-17  0.1129E-17
      4.479  0.2769E+00  0.3388E-01  0.5887E-02
      4.572  0.1789E+00  0.2780E-01  0.3600E-02
      4.666  0.0000E+00  0.0000E+00  0.0000E+00
      4.759  0.0000E+00  0.0000E+00  0.0000E+00
      4.853  0.0000E+00  0.0000E+00  0.0000E+00
      4.946  0.0000E+00  0.0000E+00  0.0000E+00
      5.039  0.0000E+00  0.0000E+00  0.0000E+00
      5.133  0.1243E+00  0.3231E-01  0.1593E-01
      5.226  0.0000E+00  0.0000E+00  0.0000E+00
      5.320  0.7727E-01  0.8426E-02  0.1246E-01
      5.413  0.4563E+00  0.1495E+00  0.5622E-01
      5.506  0.6494E+00  0.1264E+00  0.4104E-01
      5.600  0.4844E+00  0.7788E-01  0.3008E-01
      5.693  0.1581E+00  0.6516E-01  0.2889E-01
      5.787  0.6710E-01  0.2339E-01  0.1566E-01
      5.880  0.0000E+00  0.0000E+00  0.0000E+00
      5.973  0.0000E+00  0.0000E+00  0.0000E+00
      6.067  0.0000E+00  0.0000E+00  0.0000E+00
      6.160  0.0000E+00  0.0000E+00  0.0000E+00
      6.253  0.0000E+00  0.0000E+00  0.0000E+00
      6.347  0.6319E+00  0.1549E+00  0.6239E-01
      6.440  0.1679E+00  0.2048E-01  0.1549E-01
      6.534  0.0000E+00  0.0000E+00  0.0000E+00
      6.627  0.0000E+00  0.0000E+00  0.0000E+00
      6.720  0.1295E+00  0.2807E+00  0.2640E-01
      6.814  0.1237E-05  0.2547E+00  0.5892E-01
      6.907  0.0000E+00  0.0000E+00  0.0000E+00
      7.001  0.0000E+00  0.0000E+00  0.0000E+00
      7.094  0.0000E+00  0.0000E+00  0.0000E+00
      7.187  0.9859E-17  0.3030E-15  0.1432E-15
      7.281  0.5224E-02  0.1606E+00  0.7586E-01
      7.374  0.1133E+00  0.3454E+00  0.6965E-01
      7.468  0.4203E-01  0.9507E-01  0.9136E-02
      7.561  0.1306E-11  0.7077E-11  0.2357E-11
      7.654  0.3697E-01  0.2271E+00  0.6741E-01
      7.748  0.0000E+00  0.0000E+00  0.0000E+00
      7.841  0.1169E-24  0.4015E-10  0.8240E-11
      7.934  0.1447E+00  0.4242E+00  0.5210E-01
      8.028  0.1189E-03  0.2141E+00  0.6415E-01
      8.121  0.0000E+00  0.0000E+00  0.0000E+00
      8.215  0.2863E-02  0.7865E-01  0.1351E-01
      8.308  0.6312E-15  0.6774E-01  0.3433E-02
      8.401  0.4520E-03  0.5147E+00  0.9851E-01
      8.495  0.4609E-09  0.7499E-09  0.1203E-09
      8.588  0.1358E+00  0.2209E+00  0.3543E-01
      8.682  0.4417E-14  0.5097E-01  0.1087E-01
      8.775  0.0000E+00  0.0000E+00  0.0000E+00
      8.868  0.8636E-21  0.5675E-07  0.6881E-08
      8.962  0.6210E-14  0.4081E+00  0.4948E-01
      9.055  0.2898E-01  0.4127E-01  0.1134E-01
      9.149  0.9351E-01  0.1388E+00  0.5129E-01
      9.242  0.0000E+00  0.0000E+00  0.0000E+00
      9.335  0.8264E-04  0.2574E-03  0.9454E-04
      9.429  0.5835E-01  0.1817E+00  0.6675E-01
      9.522  0.3719E-12  0.1546E+00  0.2749E-01
      9.616  0.0000E+00  0.0000E+00  0.0000E+00
      9.709  0.4067E-07  0.1752E+00  0.2316E-01
      9.802  0.1616E+00  0.3238E+00  0.1253E+00
      9.896  0.5221E-03  0.3802E-02  0.3556E-01
      9.989  0.2580E-15  0.5818E-13  0.2558E-13
     10.082  0.9009E-03  0.2031E+00  0.8931E-01
     10.176  0.3049E-01  0.2709E-02  0.1843E-01
     10.269  0.1900E-04  0.2521E-02  0.3900E-03
     10.363  0.2820E-01  0.6060E+00  0.8686E-01
     10.456  0.2625E-13  0.2139E+00  0.1076E+00
     10.549  0.4309E-22  0.1558E-08  0.2637E-09
     10.643  0.9272E-14  0.3353E+00  0.5674E-01
     10.736  0.3032E-01  0.1730E+00  0.9117E-01
     10.830  0.5066E-04  0.2611E-01  0.6294E-02
     10.923  0.7291E-01  0.1124E-01  0.1029E-01
     11.016  0.6089E-02  0.1443E-01  0.1560E-01
     11.110  0.0000E+00  0.0000E+00  0.0000E+00
     11.203  0.1031E-11  0.4608E-06  0.4501E-05
     11.297  0.1405E-01  0.1234E+00  0.2592E+00
     11.390  0.0000E+00  0.0000E+00  0.0000E+00
     11.483  0.0000E+00  0.0000E+00  0.0000E+00
     11.577  0.1723E-01  0.2015E-03  0.3374E-04
     11.670  0.5621E-02  0.4518E-01  0.1774E-01
     11.763  0.1834E-10  0.6688E-01  0.9154E-01
     11.857  0.2811E-01  0.1726E+00  0.1308E+00
     11.950  0.0000E+00  0.0000E+00  0.0000E+00
     12.044  0.3099E-08  0.1234E-07  0.2146E-08
     12.137  0.1248E+00  0.4903E+00  0.9461E-01
     12.230  0.9902E-01  0.1766E+00  0.2879E-01
     12.324  0.0000E+00  0.0000E+00  0.0000E+00
     12.417  0.4853E-12  0.2299E-09  0.2248E-02
     12.511  0.0000E+00  0.0000E+00  0.0000E+00
     12.604  0.5053E-05  0.8576E-02  0.1719E-01
     12.697  0.1448E+00  0.2796E+00  0.9498E-01
     12.791  0.1240E+00  0.9532E-01  0.5364E-02
     12.884  0.9606E-09  0.5743E-09  0.3392E-09
     12.978  0.1465E+00  0.8760E-01  0.5174E-01
     13.071  0.0000E+00  0.0000E+00  0.0000E+00
     13.164  0.2572E-13  0.1256E-11  0.2786E-01
     13.258  0.7263E-01  0.5051E+00  0.2079E+00
     13.351  0.3866E-05  0.2114E+00  0.6659E-01
     13.444  0.8856E-04  0.7994E-01  0.9908E-01
     13.538  0.0000E+00  0.0000E+00  0.0000E+00
     13.631  0.7097E-11  0.1628E+00  0.5748E-01
     13.725  0.3740E-12  0.1548E-05  0.3105E-05
     13.818  0.0000E+00  0.0000E+00  0.0000E+00
     13.911  0.0000E+00  0.0000E+00  0.0000E+00
     14.005  0.0000E+00  0.0000E+00  0.0000E+00
     14.098  0.2181E-03  0.1603E+00  0.3780E-01
     14.192  0.1267E-04  0.2421E+00  0.7503E-01
     14.285  0.5295E-12  0.4756E-11  0.4839E-11
     14.378  0.4974E-02  0.4468E-01  0.4547E-01
     14.472  0.1847E-01  0.3547E+00  0.7973E-01
     14.565  0.0000E+00  0.0000E+00  0.0000E+00
     14.659  0.0000E+00  0.0000E+00  0.0000E+00
     14.752  0.0000E+00  0.0000E+00  0.0000E+00
     14.845  0.0000E+00  0.0000E+00  0.0000E+00
     14.939  0.0000E+00  0.0000E+00  0.0000E+00
     15.032  0.3615E-01  0.1050E+00  0.3363E-02
     15.125  0.2422E-07  0.6521E-07  0.2394E-08
     15.219  0.3093E-01  0.8328E-01  0.3058E-02
     15.312  0.0000E+00  0.0000E+00  0.0000E+00
     15.406  0.0000E+00  0.0000E+00  0.0000E+00
     15.499  0.0000E+00  0.0000E+00  0.0000E+00
     15.592  0.0000E+00  0.0000E+00  0.0000E+00
     15.686  0.0000E+00  0.0000E+00  0.0000E+00
     15.779  0.0000E+00  0.0000E+00  0.0000E+00
     15.873  0.0000E+00  0.0000E+00  0.0000E+00
     15.966  0.0000E+00  0.0000E+00  0.0000E+00
     16.059  0.0000E+00  0.0000E+00  0.0000E+00
     16.153  0.0000E+00  0.0000E+00  0.0000E+00
     16.246  0.0000E+00  0.0000E+00  0.0000E+00
     16.340  0.0000E+00  0.0000E+00  0.0000E+00
     16.433  0.0000E+00  0.0000E+00  0.0000E+00
     16.43291519    -11.58384217  301      1.88754866      1.00000000
    -11.584  0.0000E+00  0.0000E+00  0.0000E+00
    -11.490  0.0000E+00  0.0000E+00  0.0000E+00
    -11.397  0.0000E+00  0.0000E+00  0.0000E+00
    -11.304  0.0000E+00  0.0000E+00  0.0000E+00
    -11.210  0.0000E+00  0.0000E+00  0.0000E+00
    -11.117  0.0000E+00  0.0000E+00  0.0000E+00
    -11.024  0.0000E+00  0.0000E+00  0.0000E+00
    -10.930  0.0000E+00  0.0000E+00  0.0000E+00
    -10.837  0.0000E+00  0.0000E+00  0.0000E+00
    -10.743  0.0000E+00  0.0000E+00  0.0000E+00
    -10.650  0.0000E+00  0.0000E+00  0.0000E+00
    -10.557  0.0000E+00  0.0000E+00  0.0000E+00
    -10.463  0.0000E+00  0.0000E+00  0.0000E+00
    -10.370  0.0000E+00  0.0000E+00  0.0000E+00
    -10.276  0.5511E-01  0.2628E-13  0.7644E-15
    -10.183  0.4733E+00  0.1180E-03  0.4405E-06
    -10.090  0.1290E-01  0.4293E-05  0.3515E-07
     -9.996  0.2348E+01  0.7225E-03  0.8177E-05
     -9.903  0.2019E+01  0.3099E-03  0.9325E-05
     -9.809  0.3607E+01  0.1351E-03  0.1881E-04
     -9.716  0.0000E+00  0.0000E+00  0.0000E+00
     -9.623  0.0000E+00  0.0000E+00  0.0000E+00
     -9.529  0.0000E+00  0.0000E+00  0.0000E+00
     -9.436  0.0000E+00  0.0000E+00  0.0000E+00
     -9.343  0.0000E+00  0.0000E+00  0.0000E+00
     -9.249  0.0000E+00  0.0000E+00  0.0000E+00
     -9.156  0.0000E+00  0.0000E+00  0.0000E+00
     -9.062  0.0000E+00  0.0000E+00  0.0000E+00
     -8.969  0.0000E+00  0.0000E+00  0.0000E+00
     -8.876  0.0000E+00  0.0000E+00  0.0000E+00
     -8.782  0.0000E+00  0.0000E+00  0.0000E+00
     -8.689  0.0000E+00  0.0000E+00  0.0000E+00
     -8.595  0.0000E+00  0.0000E+00  0.0000E+00
     -8.502  0.0000E+00  0.0000E+00  0.0000E+00
     -8.409  0.0000E+00  0.0000E+00  0.0000E+00
     -8.315  0.0000E+00  0.0000E+00  0.0000E+00
     -8.222  0.0000E+00  0.0000E+00  0.0000E+00
     -8.128  0.0000E+00  0.0000E+00  0.0000E+00
     -8.035  0.0000E+00  0.0000E+00  0.0000E+00
     -7.942  0.0000E+00  0.0000E+00  0.0000E+00
     -7.848  0.0000E+00  0.0000E+00  0.0000E+00
     -7.755  0.2913E-15  0.2143E-02  0.7091E-04
     -7.661  0.1900E-02  0.3137E+00  0.1849E-01
     -7.568  0.9012E-02  0.1456E+00  0.1236E-01
     -7.475  0.2374E-01  0.4326E-01  0.2149E-01
     -7.381  0.2646E-01  0.8950E-02  0.8556E-03
     -7.288  0.1550E+00  0.3372E-01  0.2564E-02
     -7.195  0.4507E-01  0.5010E-02  0.5311E-03
     -7.101  0.1313E+00  0.1016E-01  0.8534E-03
     -7.008  0.4163E+00  0.2199E-01  0.2488E-02
     -6.914  0.2413E+00  0.5579E-02  0.9872E-03
     -6.821  0.5116E+00  0.5500E-02  0.1205E-02
     -6.728  0.1744E+00  0.3596E-04  0.3088E-03
     -6.634  0.0000E+00  0.0000E+00  0.0000E+00
     -6.541  0.0000E+00  0.0000E+00  0.0000E+00
     -6.447  0.0000E+00  0.0000E+00  0.0000E+00
     -6.354  0.0000E+00  0.0000E+00  0.0000E+00
     -6.261  0.0000E+00  0.0000E+00  0.0000E+00
     -6.167  0.0000E+00  0.0000E+00  0.0000E+00
     -6.074  0.0000E+00  0.0000E+00  0.0000E+00
     -5.980  0.0000E+00  0.0000E+00  0.0000E+00
     -5.887  0.0000E+00  0.0000E+00  0.0000E+00
     -5.794  0.0000E+00  0.0000E+00  0.0000E+00
     -5.700  0.0000E+00  0.0000E+00  0.0000E+00
     -5.607  0.0000E+00  0.0000E+00  0.0000E+00
     -5.514  0.0000E+00  0.0000E+00  0.0000E+00
     -5.420  0.0000E+00  0.0000E+00  0.0000E+00
     -5.327  0.0000E+00  0.0000E+00  0.0000E+00
     -5.233  0.0000E+00  0.0000E+00  0.0000E+00
     -5.140  0.0000E+00  0.0000E+00  0.0000E+00
     -5.047  0.0000E+00  0.0000E+00  0.0000E+00
     -4.953  0.0000E+00  0.0000E+00  0.0000E+00
     -4.860  0.0000E+00  0.0000E+00  0.0000E+00
     -4.766  0.0000E+00  0.0000E+00  0.0000E+00
     -4.673  0.0000E+00  0.0000E+00  0.0000E+00
     -4.580  0.0000E+00  0.0000E+00  0.0000E+00
     -4.486  0.0000E+00  0.0000E+00  0.0000E+00
     -4.393  0.0000E+00  0.0000E+00  0.0000E+00
     -4.299  0.0000E+00  0.0000E+00  0.0000E+00
     -4.206  0.0000E+00  0.0000E+00  0.0000E+00
     -4.113  0.0000E+00  0.0000E+00  0.0000E+00
     -4.019  0.0000E+00  0.0000E+00  0.0000E+00
     -3.926  0.0000E+00  0.0000E+00  0.0000E+00
     -3.833  0.0000E+00  0.0000E+00  0.0000E+00
     -3.739  0.0000E+00  0.0000E+00  0.0000E+00
     -3.646  0.0000E+00  0.0000E+00  0.0000E+00
     -3.552  0.0000E+00  0.0000E+00  0.0000E+00
     -3.459  0.0000E+00  0.0000E+00  0.0000E+00
     -3.366  0.0000E+00  0.0000E+00  0.0000E+00
     -3.272  0.0000E+00  0.0000E+00  0.0000E+00