    2    2    1    1
  0.3405476E+02  0.4583961E-09  0.4583961E-09  0.4583961E-09  0.5000000E-15
  1.000000000000000E-004
  CAR 
 Name                                    
     18     16     16
 
  0.0000000E+00  0.0000000E+00  0.0000000E+00  0.4629630E-02
    1      -10.310353   1.000000
    2       -7.752673   1.000000
    3       -7.752673   1.000000
    4       -7.752673   1.000000
    5       -7.489084   1.000000
    6       -7.489084   1.000000
    7        1.831471   1.000000
    8        1.831471   1.000000
    9        1.831471   1.000000
   10        3.375721   0.000000
   11        7.302936   0.000000
   12        7.302936   0.000000
   13        7.302937   0.000000
   14       10.335293   0.000000
   15       12.171867   0.000000
   16       12.172216   0.000000
 
  0.1666667E+00  0.0000000E+00  0.0000000E+00  0.3703704E-01
    1      -10.207466   1.000000
    2       -7.734356   1.000000
    3       -7.734355   1.000000
    4       -7.651035   1.000000
    5       -7.490263   1.000000
    6       -7.490263   1.000000
    7        0.067390   1.000000
    8        1.590494   1.000000
    9        1.590494   1.000000
   10        4.459398   0.000000
   11        7.407000   0.000000
   12        7.664487   0.000000
   13        7.664488   0.000000
   14       11.231020   0.000000
   15       11.231020   0.000000
   16       11.303802   0.000000
 
  0.3333333E+00  0.0000000E+00  0.0000000E+00  0.3703704E-01
    1      -10.011232   1.000000
    2       -7.702374   1.000000
    3       -7.702374   1.000000
    4       -7.487008   1.000000
    5       -7.487008   1.000000
    6       -7.321858   1.000000
    7       -1.982143   1.000000
    8        1.181672   1.000000
    9        1.181672   1.000000
   10        4.561318   0.000000
   11        7.942754   0.000000
   12        7.942754   0.000000
   13        9.032531   0.000000
   14       10.852987   0.000000
   15       11.694280   0.000000
   16       11.694281   0.000000
 
  0.5000000E+00  0.0000000E+00  0.0000000E+00  0.1851852E-01
    1       -9.921031   1.000000
    2       -7.689566   1.000000
    3       -7.689566   1.000000
    4       -7.481671   1.000000
    5       -7.481671   1.000000
    6       -7.044005   1.000000
    7       -2.906909   1.000000
    8        1.002675   1.000000
    9        1.002674   1.000000
   10        4.442878   0.000000
   11        7.884724   0.000000
   12        7.884725   0.000000
   13        9.809653   0.000000
   14       11.579419   0.000000
   15       13.248096   0.000000
   16       13.248098   0.000000
 
  0.1666667E+00  0.1666667E+00  0.0000000E+00  0.2777778E-01
    1      -10.173917   1.000000
    2       -7.715782   1.000000
    3       -7.715782   1.000000
    4       -7.646403   1.000000
    5       -7.494813   1.000000
    6       -7.481926   1.000000
    7        0.085606   1.000000
    8        1.191594   1.000000
    9        1.191594   1.000000
   10        5.118561   0.000000
   11        6.337540   0.000000
   12        8.312256   0.000000
   13        8.312257   0.000000
   14        9.859580   0.000000
   15       12.151316   0.000000
   16       12.429105   0.000000
 
  0.3333333E+00  0.1666667E+00  0.0000000E+00  0.1111111E+00
    1      -10.011743   1.000000
    2       -7.689968   1.000000
    3       -7.680016   1.000000
    4       -7.530027   1.000000
    5       -7.476712   1.000000
    6       -7.357939   1.000000
    7       -1.469200   1.000000
    8        0.656922   1.000000
    9        0.751505   1.000000
   10        5.533018   0.000000
   11        6.704752   0.000000
   12        8.399439   0.000000
   13        8.904720   0.000000
   14       10.715892   0.000000
   15       12.612159   0.000000
   16       12.632021   0.000000
 
  0.5000000E+00  0.1666667E+00  0.0000000E+00  0.1111111E+00
    1       -9.893189   1.000000
    2       -7.674752   1.000000
    3       -7.664418   1.000000
    4       -7.504671   1.000000
    5       -7.478653   1.000000
    6       -7.009733   1.000000
    7       -2.668499   1.000000
    8        0.096836   1.000000
    9        0.660384   1.000000
   10        5.430622   0.000000
   11        7.369398   0.000000
   12        8.688847   0.000000
   13        9.356449   0.000000
   14       11.674407   0.000000
   15       12.924322   0.000000
   16       13.330461   0.000000
 
 -0.3333333E+00  0.1666667E+00  0.0000000E+00  0.1111111E+00
    1       -9.921813   1.000000
    2       -7.678516   1.000000
    3       -7.676033   1.000000
    4       -7.492882   1.000000
    5       -7.491324   1.000000
    6       -7.103525   1.000000
    7       -2.378002   1.000000
    8       -0.052886   1.000000
    9        0.978797   1.000000
   10        5.509200   0.000000
   11        7.607040   0.000000
   12        8.386670   0.000000
   13        9.131613   0.000000
   14       11.260814   0.000000
   15       12.081803   0.000000
   16       13.229228   0.000000
 
 -0.1666667E+00  0.1666667E+00  0.0000000E+00  0.5555556E-01
    1      -10.075047   1.000000
    2       -7.713592   1.000000
    3       -7.698693   1.000000
    4       -7.512710   1.000000
    5       -7.498338   1.000000
    6       -7.446087   1.000000
    7       -1.014384   1.000000
    8        0.515405   1.000000
    9        1.459655   1.000000
   10        5.350170   0.000000
   11        7.351889   0.000000
   12        7.921619   0.000000
   13        8.212786   0.000000
   14       10.431549   0.000000
   15       11.837629   0.000000
   16       12.711657   0.000000
 
  0.3333333E+00  0.3333333E+00  0.0000000E+00  0.2777778E-01
    1       -9.921202   1.000000
    2       -7.636393   1.000000
    3       -7.636393   1.000000
    4       -7.568336   1.000000
    5       -7.467584   1.000000
    6       -7.208881   1.000000
    7       -1.854021   1.000000
    8        0.229226   1.000000
    9        0.229226   1.000000
   10        5.325747   0.000000
   11        5.763664   0.000000
   12       10.126537   0.000000
   13       10.410885   0.000000
   14       10.410886   0.000000
   15       13.136101   0.000000
   16       15.002866   0.000000
 
  0.5000000E+00  0.3333333E+00  0.0000000E+00  0.1111111E+00
    1       -9.837993   1.000000
    2       -7.631014   1.000000
    3       -7.615768   1.000000
    4       -7.551236   1.000000
    5       -7.468685   1.000000
    6       -6.920400   1.000000
    7       -2.536619   1.000000
    8       -0.473816   1.000000
    9        0.083966   1.000000
   10        5.408014   0.000000
   11        6.359410   0.000000
   12        9.792999   0.000000
   13       10.590006   0.000000
   14       12.082797   0.000000
   15       13.623551   0.000000
   16       14.444121   0.000000
 
 -0.3333333E+00  0.3333333E+00  0.0000000E+00  0.5555556E-01
    1       -9.839046   1.000000
    2       -7.650254   1.000000
    3       -7.634391   1.000000
    4       -7.515877   1.000000
    5       -7.484901   1.000000
    6       -6.859823   1.000000
    7       -2.561205   1.000000
    8       -0.970729   1.000000
    9        0.416718   1.000000
   10        5.676582   0.000000
   11        7.903617   0.000000
   12        9.687710   0.000000
   13        9.741868   0.000000
   14       10.311360   0.000000
   15       11.809671   0.000000
   16       15.159426   0.000000
 
  0.5000000E+00  0.5000000E+00  0.0000000E+00  0.1388889E-01
    1       -9.810810   1.000000
    2       -7.593524   1.000000
    3       -7.593524   1.000000
    4       -7.584198   1.000000
    5       -7.460367   1.000000
    6       -6.859526   1.000000
    7       -2.770697   1.000000
    8       -0.168091   1.000000
    9       -0.168091   1.000000
   10        5.100754   0.000000
   11        5.295149   0.000000
   12       11.806277   0.000000
   13       12.200709   0.000000
   14       12.200724   0.000000
   15       13.725429   0.000000
   16       14.475601   0.000000
 
  0.5000000E+00  0.3333333E+00  0.1666667E+00  0.1111111E+00
    1       -9.893346   1.000000
    2       -7.658619   1.000000
    3       -7.649683   1.000000
    4       -7.527320   1.000000
    5       -7.477487   1.000000
    6       -7.070016   1.000000
    7       -2.187755   1.000000
    8       -0.376876   1.000000
    9        0.431622   1.000000
   10        6.327005   0.000000
   11        6.753135   0.000000
   12        7.957607   0.000000
   13       10.286840   0.000000
   14       11.023033   0.000000
   15       13.213192   0.000000
   16       14.479096   0.000000
 
 -0.3333333E+00  0.3333333E+00  0.1666667E+00  0.1111111E+00
    1       -9.839049   1.000000
    2       -7.649928   1.000000
    3       -7.635810   1.000000
    4       -7.513416   1.000000
    5       -7.486359   1.000000
    6       -6.859245   1.000000
    7       -2.605509   1.000000
    8       -0.719580   1.000000
    9        0.126491   1.000000
   10        6.444482   0.000000
   11        7.242969   0.000000
   12        8.535818   0.000000
   13       10.040021   0.000000
   14       10.839880   0.000000
   15       13.398830   0.000000
   16       14.170085   0.000000
 
 -0.3333333E+00  0.5000000E+00  0.1666667E+00  0.5555556E-01
    1       -9.812405   1.000000
    2       -7.623843   1.000000
    3       -7.619161   1.000000
    4       -7.536221   1.000000
    5       -7.477041   1.000000
    6       -6.798881   1.000000
    7       -2.653380   1.000000
    8       -0.552373   1.000000
    9       -0.423960   1.000000
   10        6.347265   0.000000
   11        6.448425   0.000000
   12        9.481434   0.000000
   13        9.766074   0.000000
   14       12.653410   0.000000
   15       14.073982   0.000000
   16       14.329877   0.000000
