       N       E                     dE             d eps       ncg     rms          ort
DAV:   1     0.641626547359E+03    0.64163E+03   -0.43069E+04   256   0.189E+03
DAV:   2     0.948405295463E+02   -0.54679E+03   -0.51621E+03   256   0.639E+02
DAV:   3     0.305544082954E+02   -0.64286E+02   -0.61477E+02   256   0.161E+02
DAV:   4     0.279026531468E+02   -0.26518E+01   -0.26458E+01   256   0.318E+01
DAV:   5     0.278525151321E+02   -0.50138E-01   -0.50129E-01   256   0.369E+00
SDA:   6    -0.459256797367E+01   -0.32445E+02   -0.50129E-01   256   0.714E+01 0.000E+00
CGA:   7    -0.579853206355E+01   -0.12060E+01   -0.12149E+01   256   0.318E+00 0.855E-01
CGA:   8    -0.596855368857E+01   -0.17002E+00   -0.15954E+00   256   0.965E-01 0.379E-01
CGA:   9    -0.601315090694E+01   -0.44597E-01   -0.43930E-01   256   0.294E-01 0.322E-02
CGA:  10    -0.602375636177E+01   -0.10605E-01   -0.10509E-01   256   0.724E-02 0.646E-03
CGA:  11    -0.602574537596E+01   -0.19890E-02   -0.19887E-02   256   0.878E-03 0.832E-05
CGA:  12    -0.602612577452E+01   -0.38040E-03   -0.38326E-03   256   0.252E-03-0.142E-04
CGA:  13    -0.602622664604E+01   -0.10087E-03   -0.10180E-03   256   0.668E-04-0.542E-05
CGA:  14    -0.602625215307E+01   -0.25507E-04   -0.25871E-04   256   0.149E-04-0.248E-05
CGA:  15    -0.602625750309E+01   -0.53500E-05   -0.56166E-05   256   0.464E-05-0.197E-05
CGA:  16    -0.602625891135E+01   -0.14083E-05   -0.14340E-05   256   0.917E-06-0.273E-06
CGA:  17    -0.602625927922E+01   -0.36787E-06   -0.44573E-06   256   0.554E-06-0.309E-06
   1 F= -.60262593E+01 E0= -.60262593E+01  d E =-.120962E-17
