  12  12   1   0
  0.2070820E+02  0.6290120E-09  0.6273890E-09  0.6297040E-09  0.5000000E-15
  1.000000000000000E-004
  CAR 
 Name                                    
     10.29778590    -22.32771109  301      1.38694704      1.00000000
    -22.328  0.0000E+00  0.0000E+00
    -22.219  0.0000E+00  0.0000E+00
    -22.110  0.0000E+00  0.0000E+00
    -22.001  0.0000E+00  0.0000E+00
    -21.893  0.0000E+00  0.0000E+00
    -21.784  0.0000E+00  0.0000E+00
    -21.675  0.0000E+00  0.0000E+00
    -21.566  0.0000E+00  0.0000E+00
    -21.458  0.0000E+00  0.0000E+00
    -21.349  0.0000E+00  0.0000E+00
    -21.240  0.0000E+00  0.0000E+00
    -21.131  0.0000E+00  0.0000E+00
    -21.023  0.0000E+00  0.0000E+00
    -20.914  0.0000E+00  0.0000E+00
    -20.805  0.1839E+02  0.2000E+01
    -20.696  0.0000E+00  0.2000E+01
    -20.588  0.0000E+00  0.2000E+01
    -20.479  0.0000E+00  0.2000E+01
    -20.370  0.0000E+00  0.2000E+01
    -20.261  0.0000E+00  0.2000E+01
    -20.153  0.0000E+00  0.2000E+01
    -20.044  0.0000E+00  0.2000E+01
    -19.935  0.0000E+00  0.2000E+01
    -19.826  0.0000E+00  0.2000E+01
    -19.718  0.0000E+00  0.2000E+01
    -19.609  0.0000E+00  0.2000E+01
    -19.500  0.0000E+00  0.2000E+01
    -19.391  0.0000E+00  0.2000E+01
    -19.283  0.0000E+00  0.2000E+01
    -19.174  0.0000E+00  0.2000E+01
    -19.065  0.0000E+00  0.2000E+01
    -18.956  0.0000E+00  0.2000E+01
    -18.848  0.0000E+00  0.2000E+01
    -18.739  0.0000E+00  0.2000E+01
    -18.630  0.0000E+00  0.2000E+01
    -18.521  0.0000E+00  0.2000E+01
    -18.413  0.0000E+00  0.2000E+01
    -18.304  0.0000E+00  0.2000E+01
    -18.195  0.0000E+00  0.2000E+01
    -18.086  0.0000E+00  0.2000E+01
    -17.978  0.0000E+00  0.2000E+01
    -17.869  0.0000E+00  0.2000E+01
    -17.760  0.0000E+00  0.2000E+01
    -17.651  0.0000E+00  0.2000E+01
    -17.543  0.0000E+00  0.2000E+01
    -17.434  0.0000E+00  0.2000E+01
    -17.325  0.0000E+00  0.2000E+01
    -17.216  0.2131E-10  0.2000E+01
    -17.108  0.3845E+02  0.6182E+01
    -16.999  0.1839E+02  0.1200E+02
    -16.890  0.0000E+00  0.1200E+02
    -16.781  0.0000E+00  0.1200E+02
    -16.673  0.0000E+00  0.1200E+02
    -16.564  0.0000E+00  0.1200E+02
    -16.455  0.0000E+00  0.1200E+02
    -16.346  0.0000E+00  0.1200E+02
    -16.238  0.0000E+00  0.1200E+02
    -16.129  0.0000E+00  0.1200E+02
    -16.020  0.0000E+00  0.1200E+02
    -15.911  0.0000E+00  0.1200E+02
    -15.803  0.0000E+00  0.1200E+02
    -15.694  0.0000E+00  0.1200E+02
    -15.585  0.0000E+00  0.1200E+02
    -15.476  0.0000E+00  0.1200E+02
    -15.368  0.0000E+00  0.1200E+02
    -15.259  0.0000E+00  0.1200E+02
    -15.150  0.0000E+00  0.1200E+02
    -15.041  0.0000E+00  0.1200E+02
    -14.933  0.0000E+00  0.1200E+02
    -14.824  0.0000E+00  0.1200E+02
    -14.715  0.0000E+00  0.1200E+02
    -14.606  0.0000E+00  0.1200E+02
    -14.498  0.0000E+00  0.1200E+02
    -14.389  0.0000E+00  0.1200E+02
    -14.280  0.0000E+00  0.1200E+02
    -14.171  0.0000E+00  0.1200E+02
    -14.063  0.0000E+00  0.1200E+02
    -13.954  0.0000E+00  0.1200E+02
    -13.845  0.0000E+00  0.1200E+02
    -13.736  0.0000E+00  0.1200E+02
    -13.628  0.0000E+00  0.1200E+02
    -13.519  0.0000E+00  0.1200E+02
    -13.410  0.1418E-16  0.1200E+02
    -13.301  0.1367E+02  0.1349E+02
    -13.193  0.0000E+00  0.1400E+02
    -13.084  0.0000E+00  0.1400E+02
    -12.975  0.0000E+00  0.1400E+02
    -12.866  0.0000E+00  0.1400E+02
    -12.758  0.0000E+00  0.1400E+02
    -12.649  0.0000E+00  0.1400E+02
    -12.540  0.0000E+00  0.1400E+02
    -12.431  0.0000E+00  0.1400E+02
    -12.323  0.3599E+00  0.1404E+02
    -12.214  0.1946E+01  0.1428E+02
    -12.105  0.4329E+01  0.1485E+02
    -11.996  0.5196E+01  0.1560E+02
    -11.888  0.3071E+01  0.1608E+02
    -11.779  0.6480E+01  0.1688E+02
    -11.670  0.3046E+01  0.1752E+02
    -11.561  0.2625E+01  0.1801E+02
    -11.453  0.6219E+01  0.1870E+02
    -11.344  0.5130E+01  0.1975E+02
    -11.235  0.5960E+00  0.2000E+02
    -11.126  0.0000E+00  0.2000E+02
    -11.018  0.0000E+00  0.2000E+02
    -10.909  0.0000E+00  0.2000E+02
    -10.800  0.0000E+00  0.2000E+02
    -10.691  0.0000E+00  0.2000E+02
    -10.583  0.0000E+00  0.2000E+02
    -10.474  0.0000E+00  0.2000E+02
    -10.365  0.0000E+00  0.2000E+02
    -10.256  0.0000E+00  0.2000E+02
    -10.148  0.0000E+00  0.2000E+02
    -10.039  0.0000E+00  0.2000E+02
     -9.930  0.0000E+00  0.2000E+02
     -9.821  0.0000E+00  0.2000E+02
     -9.713  0.0000E+00  0.2000E+02
     -9.604  0.0000E+00  0.2000E+02
     -9.495  0.0000E+00  0.2000E+02
     -9.386  0.0000E+00  0.2000E+02
     -9.278  0.1464E-01  0.2000E+02
     -9.169  0.1330E+02  0.2178E+02
     -9.060  0.9844E+01  0.2307E+02
     -8.951  0.1022E+01  0.2400E+02
     -8.843  0.0000E+00  0.2400E+02
     -8.734  0.0000E+00  0.2400E+02
     -8.625  0.0000E+00  0.2400E+02
     -8.516  0.0000E+00  0.2400E+02
     -8.407  0.0000E+00  0.2400E+02
     -8.299  0.0000E+00  0.2400E+02
     -8.190  0.0000E+00  0.2400E+02
     -8.081  0.1553E-07  0.2400E+02
     -7.972  0.8514E-01  0.2401E+02
     -7.864  0.5108E+00  0.2406E+02
     -7.755  0.1712E+00  0.2408E+02
     -7.646  0.5951E-08  0.2418E+02
     -7.537  0.1154E+01  0.2430E+02
     -7.429  0.4056E+00  0.2435E+02
     -7.320  0.2558E+00  0.2456E+02
     -7.211  0.2171E+01  0.2487E+02
     -7.102  0.1847E+01  0.2509E+02
     -6.994  0.1341E+02  0.2710E+02
     -6.885  0.2749E+01  0.2741E+02
     -6.776  0.3967E-01  0.2745E+02
     -6.667  0.5959E+00  0.2769E+02
     -6.559  0.1022E+01  0.2781E+02
     -6.450  0.5202E-01  0.2783E+02
     -6.341  0.0000E+00  0.2794E+02
     -6.232  0.3464E+00  0.2797E+02
     -6.124  0.0000E+00  0.2799E+02
     -6.015  0.7966E-01  0.2800E+02
     -5.906  0.0000E+00  0.2800E+02
     -5.797  0.0000E+00  0.2800E+02
     -5.689  0.0000E+00  0.2800E+02
     -5.580  0.0000E+00  0.2800E+02
     -5.471  0.0000E+00  0.2800E+02
     -5.362  0.0000E+00  0.2800E+02
     -5.254  0.0000E+00  0.2800E+02
     -5.145  0.0000E+00  0.2800E+02
     -5.036  0.0000E+00  0.2800E+02
     -4.927  0.0000E+00  0.2800E+02
     -4.819  0.2435E+00  0.2803E+02
     -4.710  0.3293E+02  0.3200E+02
     -4.601  0.0000E+00  0.3200E+02
     -4.492  0.0000E+00  0.3200E+02
     -4.384  0.0000E+00  0.3200E+02
     -4.275  0.0000E+00  0.3200E+02
     -4.166  0.0000E+00  0.3200E+02
     -4.057  0.0000E+00  0.3200E+02
     -3.949  0.0000E+00  0.3200E+02
     -3.840  0.0000E+00  0.3200E+02
     -3.731  0.0000E+00  0.3200E+02
     -3.622  0.0000E+00  0.3200E+02
     -3.514  0.0000E+00  0.3200E+02
     -3.405  0.0000E+00  0.3200E+02
     -3.296  0.0000E+00  0.3200E+02
     -3.187  0.0000E+00  0.3200E+02
     -3.079  0.0000E+00  0.3200E+02
     -2.970  0.0000E+00  0.3200E+02
     -2.861  0.1446E-06  0.3200E+02
     -2.752  0.1406E+01  0.3215E+02
     -2.644  0.3646E+01  0.3258E+02
     -2.535  0.2042E+01  0.3286E+02
     -2.426  0.1564E+01  0.3311E+02
     -2.317  0.1829E+01  0.3341E+02
     -2.209  0.2648E+01  0.3384E+02
     -2.100  0.3696E+01  0.3438E+02
     -1.991  0.2284E+01  0.3479E+02
     -1.882  0.7103E+00  0.3497E+02
     -1.774  0.2808E-12  0.3500E+02
     -1.665  0.2554E+00  0.3503E+02
     -1.556  0.2731E+01  0.3532E+02
     -1.447  0.3759E+01  0.3585E+02
     -1.339  0.6515E+01  0.3690E+02
     -1.230  0.3289E+01  0.3766E+02
     -1.121  0.3669E+01  0.3820E+02
     -1.012  0.4855E+01  0.3882E+02
     -0.904  0.3946E+01  0.3936E+02
     -0.795  0.7274E+01  0.4028E+02
     -0.686  0.6811E+01  0.4129E+02
     -0.577  0.4866E+01  0.4192E+02
     -0.469  0.9343E+01  0.4306E+02
     -0.360  0.7833E+01  0.4408E+02
     -0.251  0.7021E+01  0.4514E+02
     -0.142  0.7863E+01  0.4607E+02
     -0.034  0.8498E+01  0.4727E+02
      0.075  0.6461E+01  0.4803E+02
      0.184  0.4662E+01  0.4879E+02
      0.293  0.3032E+01  0.4926E+02
      0.401  0.3406E+00  0.4932E+02
      0.510  0.2232E+01  0.4958E+02
      0.619  0.3261E+00  0.4965E+02
      0.728  0.5998E+00  0.4982E+02
      0.836  0.3667E+00  0.4988E+02
      0.945  0.5227E+00  0.4995E+02
      1.054  0.2013E+00  0.4998E+02
      1.163  0.0000E+00  0.4999E+02
      1.271  0.8404E-01  0.5000E+02
      1.380  0.0000E+00  0.5000E+02
      1.489  0.0000E+00  0.5000E+02
      1.598  0.0000E+00  0.5000E+02
      1.706  0.0000E+00  0.5000E+02
      1.815  0.0000E+00  0.5000E+02
      1.924  0.0000E+00  0.5000E+02
      2.033  0.0000E+00  0.5000E+02
      2.141  0.0000E+00  0.5000E+02
      2.250  0.0000E+00  0.5000E+02
      2.359  0.0000E+00  0.5000E+02
      2.468  0.0000E+00  0.5000E+02
      2.576  0.0000E+00  0.5000E+02
      2.685  0.0000E+00  0.5000E+02
      2.794  0.0000E+00  0.5000E+02
      2.903  0.0000E+00  0.5000E+02
      3.011  0.0000E+00  0.5000E+02
      3.120  0.0000E+00  0.5000E+02
      3.229  0.0000E+00  0.5000E+02
      3.338  0.1703E+00  0.5002E+02
      3.446  0.7424E+00  0.5010E+02
      3.555  0.9366E+00  0.5025E+02
      3.664  0.6800E+00  0.5032E+02
      3.773  0.2234E+01  0.5062E+02
      3.881  0.9369E+00  0.5075E+02
      3.990  0.7166E+00  0.5086E+02
      4.099  0.8098E+00  0.5099E+02
      4.208  0.8514E-01  0.5106E+02
      4.316  0.9790E+00  0.5116E+02
      4.425  0.4118E+00  0.5125E+02
      4.534  0.2213E+01  0.5152E+02
      4.643  0.2618E+01  0.5184E+02
      4.751  0.1841E+01  0.5207E+02
      4.860  0.3026E+01  0.5251E+02
      4.969  0.1913E+01  0.5282E+02
      5.078  0.8476E+00  0.5298E+02
      5.186  0.1663E+00  0.5300E+02
      5.295  0.0000E+00  0.5300E+02
      5.404  0.0000E+00  0.5300E+02
      5.513  0.1335E-03  0.5300E+02
      5.621  0.8503E-10  0.5301E+02
      5.730  0.1954E+00  0.5303E+02
      5.839  0.8437E+00  0.5316E+02
      5.948  0.2464E+01  0.5347E+02
      6.056  0.3560E+01  0.5402E+02
      6.165  0.1986E+01  0.5433E+02
      6.274  0.3080E+01  0.5477E+02
      6.383  0.2212E+01  0.5514E+02
      6.491  0.3521E+01  0.5554E+02
      6.600  0.4330E+01  0.5604E+02
      6.709  0.1871E+01  0.5636E+02
      6.818  0.5426E+01  0.5706E+02
      6.926  0.2498E+01  0.5752E+02
      7.035  0.3883E+01  0.5821E+02
      7.144  0.3658E+01  0.5871E+02
      7.253  0.5132E+01  0.5947E+02
      7.361  0.3070E+01  0.6003E+02
      7.470  0.1147E+01  0.6028E+02
      7.579  0.3388E+01  0.6085E+02
      7.688  0.4615E+01  0.6151E+02
      7.796  0.3722E+01  0.6208E+02
      7.905  0.3698E+01  0.6262E+02
      8.014  0.2769E+01  0.6301E+02
      8.123  0.1790E+01  0.6328E+02
      8.232  0.2553E+01  0.6358E+02
      8.340  0.8125E+00  0.6372E+02
      8.449  0.8514E+00  0.6385E+02
      8.558  0.5375E+00  0.6391E+02
      8.667  0.1880E-04  0.6395E+02
      8.775  0.8514E-01  0.6398E+02
      8.884  0.1703E+00  0.6400E+02
      8.993  0.0000E+00  0.6400E+02
      9.102  0.0000E+00  0.6400E+02
      9.210  0.0000E+00  0.6400E+02
      9.319  0.0000E+00  0.6400E+02
      9.428  0.0000E+00  0.6400E+02
      9.537  0.0000E+00  0.6400E+02
      9.645  0.0000E+00  0.6400E+02
      9.754  0.0000E+00  0.6400E+02
      9.863  0.0000E+00  0.6400E+02
      9.972  0.0000E+00  0.6400E+02
     10.080  0.0000E+00  0.6400E+02
     10.189  0.0000E+00  0.6400E+02
     10.298  0.0000E+00  0.6400E+02
     10.29778590    -22.32771109  301      1.38694704      1.00000000
    -22.328  0.0000E+00  0.0000E+00  0.0000E+00
    -22.219  0.0000E+00  0.0000E+00  0.0000E+00
    -22.110  0.0000E+00  0.0000E+00  0.0000E+00
    -22.001  0.0000E+00  0.0000E+00  0.0000E+00
    -21.893  0.0000E+00  0.0000E+00  0.0000E+00
    -21.784  0.0000E+00  0.0000E+00  0.0000E+00
    -21.675  0.0000E+00  0.0000E+00  0.0000E+00
    -21.566  0.0000E+00  0.0000E+00  0.0000E+00
    -21.458  0.0000E+00  0.0000E+00  0.0000E+00
    -21.349  0.0000E+00  0.0000E+00  0.0000E+00
    -21.240  0.0000E+00  0.0000E+00  0.0000E+00
    -21.131  0.0000E+00  0.0000E+00  0.0000E+00
    -21.023  0.0000E+00  0.0000E+00  0.0000E+00
    -20.914  0.0000E+00  0.0000E+00  0.0000E+00
    -20.805  0.1104E+01  0.3383E+00  0.0000E+00
    -20.696  0.0000E+00  0.0000E+00  0.0000E+00
    -20.588  0.0000E+00  0.0000E+00  0.0000E+00
    -20.479  0.0000E+00  0.0000E+00  0.0000E+00
    -20.370  0.0000E+00  0.0000E+00  0.0000E+00
    -20.261  0.0000E+00  0.0000E+00  0.0000E+00
    -20.153  0.0000E+00  0.0000E+00  0.0000E+00
    -20.044  0.0000E+00  0.0000E+00  0.0000E+00
    -19.935  0.0000E+00  0.0000E+00  0.0000E+00
    -19.826  0.0000E+00  0.0000E+00  0.0000E+00
    -19.718  0.0000E+00  0.0000E+00  0.0000E+00
    -19.609  0.0000E+00  0.0000E+00  0.0000E+00
    -19.500  0.0000E+00  0.0000E+00  0.0000E+00
    -19.391  0.0000E+00  0.0000E+00  0.0000E+00
    -19.283  0.0000E+00  0.0000E+00  0.0000E+00
    -19.174  0.0000E+00  0.0000E+00  0.0000E+00
    -19.065  0.0000E+00  0.0000E+00  0.0000E+00
    -18.956  0.0000E+00  0.0000E+00  0.0000E+00
    -18.848  0.0000E+00  0.0000E+00  0.0000E+00
    -18.739  0.0000E+00  0.0000E+00  0.0000E+00
    -18.630  0.0000E+00  0.0000E+00  0.0000E+00
    -18.521  0.0000E+00  0.0000E+00  0.0000E+00
    -18.413  0.0000E+00  0.0000E+00  0.0000E+00
    -18.304  0.0000E+00  0.0000E+00  0.0000E+00
    -18.195  0.0000E+00  0.0000E+00  0.0000E+00
    -18.086  0.0000E+00  0.0000E+00  0.0000E+00
    -17.978  0.0000E+00  0.0000E+00  0.0000E+00
    -17.869  0.0000E+00  0.0000E+00  0.0000E+00
    -17.760  0.0000E+00  0.0000E+00  0.0000E+00
    -17.651  0.0000E+00  0.0000E+00  0.0000E+00
    -17.543  0.0000E+00  0.0000E+00  0.0000E+00
    -17.434  0.0000E+00  0.0000E+00  0.0000E+00
    -17.325  0.0000E+00  0.0000E+00  0.0000E+00
    -17.216  0.5307E-18  0.2141E-18  0.0000E+00
    -17.108  0.1881E-04  0.2288E-05  0.0000E+00
    -16.999  0.5339E-05  0.1032E-05  0.0000E+00
    -16.890  0.0000E+00  0.0000E+00  0.0000E+00
    -16.781  0.0000E+00  0.0000E+00  0.0000E+00
    -16.673  0.0000E+00  0.0000E+00  0.0000E+00
    -16.564  0.0000E+00  0.0000E+00  0.0000E+00
    -16.455  0.0000E+00  0.0000E+00  0.0000E+00
    -16.346  0.0000E+00  0.0000E+00  0.0000E+00
    -16.238  0.0000E+00  0.0000E+00  0.0000E+00
    -16.129  0.0000E+00  0.0000E+00  0.0000E+00
    -16.020  0.0000E+00  0.0000E+00  0.0000E+00
    -15.911  0.0000E+00  0.0000E+00  0.0000E+00
    -15.803  0.0000E+00  0.0000E+00  0.0000E+00
    -15.694  0.0000E+00  0.0000E+00  0.0000E+00
    -15.585  0.0000E+00  0.0000E+00  0.0000E+00
    -15.476  0.0000E+00  0.0000E+00  0.0000E+00
    -15.368  0.0000E+00  0.0000E+00  0.0000E+00
    -15.259  0.0000E+00  0.0000E+00  0.0000E+00
    -15.150  0.0000E+00  0.0000E+00  0.0000E+00
    -15.041  0.0000E+00  0.0000E+00  0.0000E+00
    -14.933  0.0000E+00  0.0000E+00  0.0000E+00
    -14.824  0.0000E+00  0.0000E+00  0.0000E+00
    -14.715  0.0000E+00  0.0000E+00  0.0000E+00
    -14.606  0.0000E+00  0.0000E+00  0.0000E+00
    -14.498  0.0000E+00  0.0000E+00  0.0000E+00
    -14.389  0.0000E+00  0.0000E+00  0.0000E+00
    -14.280  0.0000E+00  0.0000E+00  0.0000E+00
    -14.171  0.0000E+00  0.0000E+00  0.0000E+00
    -14.063  0.0000E+00  0.0000E+00  0.0000E+00
    -13.954  0.0000E+00  0.0000E+00  0.0000E+00
    -13.845  0.0000E+00  0.0000E+00  0.0000E+00
    -13.736  0.0000E+00  0.0000E+00  0.0000E+00
    -13.628  0.0000E+00  0.0000E+00  0.0000E+00
    -13.519  0.0000E+00  0.0000E+00  0.0000E+00
    -13.410  0.4665E-17  0.2643E-20  0.0000E+00
    -13.301  0.4650E+01  0.3018E-02  0.0000E+00
    -13.193  0.0000E+00  0.0000E+00  0.0000E+00
    -13.084  0.0000E+00  0.0000E+00  0.0000E+00
    -12.975  0.0000E+00  0.0000E+00  0.0000E+00
    -12.866  0.0000E+00  0.0000E+00  0.0000E+00
    -12.758  0.0000E+00  0.0000E+00  0.0000E+00
    -12.649  0.0000E+00  0.0000E+00  0.0000E+00
    -12.540  0.0000E+00  0.0000E+00  0.0000E+00
    -12.431  0.0000E+00  0.0000E+00  0.0000E+00
    -12.323  0.7124E-03  0.2287E-03  0.0000E+00
    -12.214  0.6997E-02  0.1088E-02  0.0000E+00
    -12.105  0.2369E-01  0.1828E-02  0.0000E+00
    -11.996  0.1473E-01  0.1574E-02  0.0000E+00
    -11.888  0.1293E-02  0.9576E-03  0.0000E+00
    -11.779  0.1142E-01  0.2015E-02  0.0000E+00
    -11.670  0.3848E-02  0.6255E-03  0.0000E+00
    -11.561  0.2835E-03  0.3025E-03  0.0000E+00
    -11.453  0.1249E-02  0.5580E-03  0.0000E+00
    -11.344  0.3281E-02  0.2668E-03  0.0000E+00
    -11.235  0.6293E-03  0.6694E-04  0.0000E+00
    -11.126  0.0000E+00  0.0000E+00  0.0000E+00
    -11.018  0.0000E+00  0.0000E+00  0.0000E+00
    -10.909  0.0000E+00  0.0000E+00  0.0000E+00
    -10.800  0.0000E+00  0.0000E+00  0.0000E+00
    -10.691  0.0000E+00  0.0000E+00  0.0000E+00
    -10.583  0.0000E+00  0.0000E+00  0.0000E+00
    -10.474  0.0000E+00  0.0000E+00  0.0000E+00
    -10.365  0.0000E+00  0.0000E+00  0.0000E+00
    -10.256  0.0000E+00  0.0000E+00  0.0000E+00
    -10.148  0.0000E+00  0.0000E+00  0.0000E+00
    -10.039  0.0000E+00  0.0000E+00  0.0000E+00
     -9.930  0.0000E+00  0.0000E+00  0.0000E+00
     -9.821  0.0000E+00  0.0000E+00  0.0000E+00
     -9.713  0.0000E+00  0.0000E+00  0.0000E+00
     -9.604  0.0000E+00  0.0000E+00  0.0000E+00
     -9.495  0.0000E+00  0.0000E+00  0.0000E+00
     -9.386  0.0000E+00  0.0000E+00  0.0000E+00
     -9.278  0.5581E-11  0.6086E-03  0.0000E+00
     -9.169  0.9407E-04  0.5607E+00  0.0000E+00
     -9.060  0.1019E-03  0.4413E+00  0.0000E+00
     -8.951  0.4989E-05  0.4603E-01  0.0000E+00
     -8.843  0.0000E+00  0.0000E+00  0.0000E+00
     -8.734  0.0000E+00  0.0000E+00  0.0000E+00
     -8.625  0.0000E+00  0.0000E+00  0.0000E+00
     -8.516  0.0000E+00  0.0000E+00  0.0000E+00
     -8.407  0.0000E+00  0.0000E+00  0.0000E+00
     -8.299  0.0000E+00  0.0000E+00  0.0000E+00
     -8.190  0.0000E+00  0.0000E+00  0.0000E+00
     -8.081  0.5912E-17  0.7588E-12  0.0000E+00
     -7.972  0.3242E-10  0.4161E-05  0.0000E+00
     -7.864  0.9728E-08  0.4439E-04  0.0000E+00
     -7.755  0.3872E-05  0.3562E-04  0.0000E+00
     -7.646  0.2748E-12  0.2848E-11  0.0000E+00
     -7.537  0.3289E-04  0.4738E-03  0.0000E+00
     -7.429  0.5622E-04  0.5293E-03  0.0000E+00
     -7.320  0.2329E-05  0.9377E-04  0.0000E+00
     -7.211  0.8183E-03  0.1190E-01  0.0000E+00
     -7.102  0.1181E-01  0.1870E+00  0.0000E+00
     -6.994  0.1680E+00  0.2731E+01  0.0000E+00
     -6.885  0.5560E-02  0.9514E-01  0.0000E+00
     -6.776  0.2257E-04  0.3784E-03  0.0000E+00
     -6.667  0.3451E-03  0.6170E-02  0.0000E+00
     -6.559  0.4951E-03  0.8475E-02  0.0000E+00
     -6.450  0.1716E-04  0.2957E-03  0.0000E+00
     -6.341  0.0000E+00  0.0000E+00  0.0000E+00
     -6.232  0.7409E-04  0.1286E-02  0.0000E+00
     -6.124  0.0000E+00  0.0000E+00  0.0000E+00
     -6.015  0.1111E-04  0.2067E-03  0.0000E+00
     -5.906  0.0000E+00  0.0000E+00  0.0000E+00
     -5.797  0.0000E+00  0.0000E+00  0.0000E+00
     -5.689  0.0000E+00  0.0000E+00  0.0000E+00
     -5.580  0.0000E+00  0.0000E+00  0.0000E+00
     -5.471  0.0000E+00  0.0000E+00  0.0000E+00
     -5.362  0.0000E+00  0.0000E+00  0.0000E+00
     -5.254  0.0000E+00  0.0000E+00  0.0000E+00
     -5.145  0.0000E+00  0.0000E+00  0.0000E+00
     -5.036  0.0000E+00  0.0000E+00  0.0000E+00
     -4.927  0.0000E+00  0.0000E+00  0.0000E+00
     -4.819  0.1284E-06  0.6505E-01  0.0000E+00
     -4.710  0.9377E-04  0.8861E+01  0.0000E+00
     -4.601  0.0000E+00  0.0000E+00  0.0000E+00
     -4.492  0.0000E+00  0.0000E+00  0.0000E+00
     -4.384  0.0000E+00  0.0000E+00  0.0000E+00
     -4.275  0.0000E+00  0.0000E+00  0.0000E+00
     -4.166  0.0000E+00  0.0000E+00  0.0000E+00
     -4.057  0.0000E+00  0.0000E+00  0.0000E+00
     -3.949  0.0000E+00  0.0000E+00  0.0000E+00
     -3.840  0.0000E+00  0.0000E+00  0.0000E+00
     -3.731  0.0000E+00  0.0000E+00  0.0000E+00
     -3.622  0.0000E+00  0.0000E+00  0.0000E+00
     -3.514  0.0000E+00  0.0000E+00  0.0000E+00
     -3.405  0.0000E+00  0.0000E+00  0.0000E+00
     -3.296  0.0000E+00  0.0000E+00  0.0000E+00
     -3.187  0.0000E+00  0.0000E+00  0.0000E+00
     -3.079  0.0000E+00  0.0000E+00  0.0000E+00
     -2.970  0.0000E+00  0.0000E+00  0.0000E+00
     -2.861  0.8516E-13  0.1720E-09  0.0000E+00
     -2.752  0.2049E-04  0.2485E-02  0.0000E+00
     -2.644  0.3520E-03  0.6727E-02  0.0000E+00
     -2.535  0.1662E-03  0.3521E-02  0.0000E+00
     -2.426  0.1268E-03  0.2477E-02  0.0000E+00
     -2.317  0.1703E-03  0.2923E-02  0.0000E+00
     -2.209  0.1036E-03  0.4541E-02  0.0000E+00
     -2.100  0.2832E-03  0.4628E-02  0.0000E+00
     -1.991  0.2086E-03  0.3183E-02  0.0000E+00
     -1.882  0.6520E-04  0.1448E-02  0.0000E+00
     -1.774  0.6037E-15  0.4801E-15  0.0000E+00
     -1.665  0.4874E-03  0.7875E-03  0.0000E+00
     -1.556  0.3885E-02  0.9644E-02  0.0000E+00
     -1.447  0.3484E-02  0.1276E-01  0.0000E+00
     -1.339  0.5758E-02  0.2353E-01  0.0000E+00
     -1.230  0.2208E-02  0.1423E-01  0.0000E+00
     -1.121  0.1546E-02  0.1225E-01  0.0000E+00
     -1.012  0.2146E-02  0.1643E-01  0.0000E+00
     -0.904  0.1097E-02  0.9775E-02  0.0000E+00
     -0.795  0.1565E-02  0.1791E-01  0.0000E+00
     -0.686  0.8385E-03  0.1473E-01  0.0000E+00
     -0.577  0.3136E-03  0.9130E-02  0.0000E+00
     -0.469  0.2631E-02  0.1557E-01  0.0000E+00
     -0.360  0.1084E-02  0.1334E-01  0.0000E+00
     -0.251  0.7591E-03  0.1218E-01  0.0000E+00
     -0.142  0.1492E-02  0.1762E-01  0.0000E+00
     -0.034  0.1822E-02  0.2065E-01  0.0000E+00
      0.075  0.2688E-02  0.7897E-02  0.0000E+00
      0.184  0.1183E-02  0.5483E-02  0.0000E+00
      0.293  0.2661E-03  0.2173E-02  0.0000E+00
      0.401  0.1827E-04  0.1158E-03  0.0000E+00
      0.510  0.2280E-03  0.1280E-02  0.0000E+00
      0.619  0.1371E-04  0.1417E-03  0.0000E+00
      0.728  0.4128E-04  0.2361E-03  0.0000E+00
      0.836  0.1574E-04  0.1750E-03  0.0000E+00
      0.945  0.5022E-05  0.2808E-03  0.0000E+00
      1.054  0.1224E-08  0.6486E-04  0.0000E+00
      1.163  0.0000E+00  0.0000E+00  0.0000E+00
      1.271  0.9461E-12  0.5137E-05  0.0000E+00
      1.380  0.0000E+00  0.0000E+00  0.0000E+00
      1.489  0.0000E+00  0.0000E+00  0.0000E+00
      1.598  0.0000E+00  0.0000E+00  0.0000E+00
      1.706  0.0000E+00  0.0000E+00  0.0000E+00
      1.815  0.0000E+00  0.0000E+00  0.0000E+00
      1.924  0.0000E+00  0.0000E+00  0.0000E+00
      2.033  0.0000E+00  0.0000E+00  0.0000E+00
      2.141  0.0000E+00  0.0000E+00  0.0000E+00
      2.250  0.0000E+00  0.0000E+00  0.0000E+00
      2.359  0.0000E+00  0.0000E+00  0.0000E+00
      2.468  0.0000E+00  0.0000E+00  0.0000E+00
      2.576  0.0000E+00  0.0000E+00  0.0000E+00
      2.685  0.0000E+00  0.0000E+00  0.0000E+00
      2.794  0.0000E+00  0.0000E+00  0.0000E+00
      2.903  0.0000E+00  0.0000E+00  0.0000E+00
      3.011  0.0000E+00  0.0000E+00  0.0000E+00
      3.120  0.0000E+00  0.0000E+00  0.0000E+00
      3.229  0.0000E+00  0.0000E+00  0.0000E+00
      3.338  0.7596E-05  0.1682E-04  0.0000E+00
      3.446  0.2818E-04  0.9834E-04  0.0000E+00
      3.555  0.3951E-04  0.1796E-03  0.0000E+00
      3.664  0.2235E-04  0.1204E-03  0.0000E+00
      3.773  0.1410E-03  0.4134E-03  0.0000E+00
      3.881  0.7618E-04  0.2176E-03  0.0000E+00
      3.990  0.1297E-03  0.2353E-03  0.0000E+00
      4.099  0.1974E-03  0.3494E-03  0.0000E+00
      4.208  0.3098E-04  0.6416E-04  0.0000E+00
      4.316  0.2321E-04  0.1759E-03  0.0000E+00
      4.425  0.1134E-04  0.7455E-04  0.0000E+00
      4.534  0.3126E-04  0.4340E-03  0.0000E+00
      4.643  0.7304E-04  0.5796E-03  0.0000E+00
      4.751  0.9626E-04  0.4707E-03  0.0000E+00
      4.860  0.1987E-03  0.7478E-03  0.0000E+00
      4.969  0.1010E-03  0.4764E-03  0.0000E+00
      5.078  0.1292E-03  0.4094E-03  0.0000E+00
      5.186  0.1914E-04  0.4702E-04  0.0000E+00
      5.295  0.0000E+00  0.0000E+00  0.0000E+00
      5.404  0.0000E+00  0.0000E+00  0.0000E+00
      5.513  0.3707E-05  0.1763E-05  0.0000E+00
      5.621  0.1900E-11  0.1196E-11  0.0000E+00
      5.730  0.4432E-02  0.2790E-02  0.0000E+00
      5.839  0.1061E-01  0.9031E-02  0.0000E+00
      5.948  0.1682E-01  0.1633E-01  0.0000E+00
      6.056  0.3557E-02  0.7471E-02  0.0000E+00
      6.165  0.4404E-02  0.5714E-02  0.0000E+00
      6.274  0.1543E-01  0.1638E-01  0.0000E+00
      6.383  0.1968E-01  0.1378E-01  0.0000E+00
      6.491  0.4441E-01  0.3482E-01  0.0000E+00
      6.600  0.3050E-01  0.3699E-01  0.0000E+00
      6.709  0.1134E-01  0.2249E-01  0.0000E+00
      6.818  0.3136E-01  0.6183E-01  0.0000E+00
      6.926  0.4892E-01  0.1668E-01  0.0000E+00
      7.035  0.7533E-01  0.2730E-01  0.0000E+00
      7.144  0.4312E-01  0.3448E-01  0.0000E+00
      7.253  0.1070E+00  0.5280E-01  0.0000E+00
      7.361  0.4229E-01  0.3123E-01  0.0000E+00
      7.470  0.1872E-01  0.8254E-02  0.0000E+00
      7.579  0.2885E-01  0.4385E-01  0.0000E+00
      7.688  0.2215E-01  0.7063E-01  0.0000E+00
      7.796  0.1637E-01  0.6650E-01  0.0000E+00
      7.905  0.1735E-01  0.6147E-01  0.0000E+00
      8.014  0.9114E-02  0.5857E-01  0.0000E+00
      8.123  0.2148E-02  0.5335E-01  0.0000E+00
      8.232  0.1622E-01  0.6145E-01  0.0000E+00
      8.340  0.7752E-02  0.2631E-01  0.0000E+00
      8.449  0.9927E-02  0.3457E-01  0.0000E+00
      8.558  0.9781E-03  0.1236E-01  0.0000E+00
      8.667  0.3029E-08  0.2891E-06  0.0000E+00
      8.775  0.2621E-02  0.3633E-02  0.0000E+00
      8.884  0.2358E-05  0.7450E-02  0.0000E+00
      8.993  0.0000E+00  0.0000E+00  0.0000E+00
      9.102  0.0000E+00  0.0000E+00  0.0000E+00
      9.210  0.0000E+00  0.0000E+00  0.0000E+00
      9.319  0.0000E+00  0.0000E+00  0.0000E+00
      9.428  0.0000E+00  0.0000E+00  0.0000E+00
      9.537  0.0000E+00  0.0000E+00  0.0000E+00
      9.645  0.0000E+00  0.0000E+00  0.0000E+00
      9.754  0.0000E+00  0.0000E+00  0.0000E+00
      9.863  0.0000E+00  0.0000E+00  0.0000E+00
      9.972  0.0000E+00  0.0000E+00  0.0000E+00
     10.080  0.0000E+00  0.0000E+00  0.0000E+00
     10.189  0.0000E+00  0.0000E+00  0.0000E+00
     10.298  0.0000E+00  0.0000E+00  0.0000E+00
     10.29778590    -22.32771109  301      1.38694704      1.00000000
    -22.328  0.0000E+00  0.0000E+00  0.0000E+00
    -22.219  0.0000E+00  0.0000E+00  0.0000E+00
    -22.110  0.0000E+00  0.0000E+00  0.0000E+00
    -22.001  0.0000E+00  0.0000E+00  0.0000E+00
    -21.893  0.0000E+00  0.0000E+00  0.0000E+00
    -21.784  0.0000E+00  0.0000E+00  0.0000E+00
    -21.675  0.0000E+00  0.0000E+00  0.0000E+00
    -21.566  0.0000E+00  0.0000E+00  0.0000E+00
    -21.458  0.0000E+00  0.0000E+00  0.0000E+00
    -21.349  0.0000E+00  0.0000E+00  0.0000E+00
    -21.240  0.0000E+00  0.0000E+00  0.0000E+00
    -21.131  0.0000E+00  0.0000E+00  0.0000E+00
    -21.023  0.0000E+00  0.0000E+00  0.0000E+00
    -20.914  0.0000E+00  0.0000E+00  0.0000E+00
    -20.805  0.1032E+02  0.3181E-02  0.0000E+00
    -20.696  0.0000E+00  0.0000E+00  0.0000E+00
    -20.588  0.0000E+00  0.0000E+00  0.0000E+00
    -20.479  0.0000E+00  0.0000E+00  0.0000E+00
    -20.370  0.0000E+00  0.0000E+00  0.0000E+00
    -20.261  0.0000E+00  0.0000E+00  0.0000E+00
    -20.153  0.0000E+00  0.0000E+00  0.0000E+00
    -20.044  0.0000E+00  0.0000E+00  0.0000E+00
    -19.935  0.0000E+00  0.0000E+00  0.0000E+00
    -19.826  0.0000E+00  0.0000E+00  0.0000E+00
    -19.718  0.0000E+00  0.0000E+00  0.0000E+00
    -19.609  0.0000E+00  0.0000E+00  0.0000E+00
    -19.500  0.0000E+00  0.0000E+00  0.0000E+00
    -19.391  0.0000E+00  0.0000E+00  0.0000E+00
    -19.283  0.0000E+00  0.0000E+00  0.0000E+00
    -19.174  0.0000E+00  0.0000E+00  0.0000E+00
    -19.065  0.0000E+00  0.0000E+00  0.0000E+00
    -18.956  0.0000E+00  0.0000E+00  0.0000E+00
    -18.848  0.0000E+00  0.0000E+00  0.0000E+00
    -18.739  0.0000E+00  0.0000E+00  0.0000E+00
    -18.630  0.0000E+00  0.0000E+00  0.0000E+00
    -18.521  0.0000E+00  0.0000E+00  0.0000E+00
    -18.413  0.0000E+00  0.0000E+00  0.0000E+00
    -18.304  0.0000E+00  0.0000E+00  0.0000E+00
    -18.195  0.0000E+00  0.0000E+00  0.0000E+00
    -18.086  0.0000E+00  0.0000E+00  0.0000E+00
    -17.978  0.0000E+00  0.0000E+00  0.0000E+00
    -17.869  0.0000E+00  0.0000E+00  0.0000E+00
    -17.760  0.0000E+00  0.0000E+00  0.0000E+00
    -17.651  0.0000E+00  0.0000E+00  0.0000E+00
    -17.543  0.0000E+00  0.0000E+00  0.0000E+00
    -17.434  0.0000E+00  0.0000E+00  0.0000E+00
    -17.325  0.0000E+00  0.0000E+00  0.0000E+00
    -17.216  0.9696E-18  0.1300E-16  0.0000E+00
    -17.108  0.2204E-04  0.1890E-04  0.0000E+00
    -16.999  0.1002E-04  0.3575E-05  0.0000E+00
    -16.890  0.0000E+00  0.0000E+00  0.0000E+00
    -16.781  0.0000E+00  0.0000E+00  0.0000E+00
    -16.673  0.0000E+00  0.0000E+00  0.0000E+00
    -16.564  0.0000E+00  0.0000E+00  0.0000E+00
    -16.455  0.0000E+00  0.0000E+00  0.0000E+00
    -16.346  0.0000E+00  0.0000E+00  0.0000E+00
    -16.238  0.0000E+00  0.0000E+00  0.0000E+00
    -16.129  0.0000E+00  0.0000E+00  0.0000E+00
    -16.020  0.0000E+00  0.0000E+00  0.0000E+00
    -15.911  0.0000E+00  0.0000E+00  0.0000E+00
    -15.803  0.0000E+00  0.0000E+00  0.0000E+00
    -15.694  0.0000E+00  0.0000E+00  0.0000E+00
    -15.585  0.0000E+00  0.0000E+00  0.0000E+00
    -15.476  0.0000E+00  0.0000E+00  0.0000E+00
    -15.368  0.0000E+00  0.0000E+00  0.0000E+00
    -15.259  0.0000E+00  0.0000E+00  0.0000E+00
    -15.150  0.0000E+00  0.0000E+00  0.0000E+00
    -15.041  0.0000E+00  0.0000E+00  0.0000E+00
    -14.933  0.0000E+00  0.0000E+00  0.0000E+00
    -14.824  0.0000E+00  0.0000E+00  0.0000E+00
    -14.715  0.0000E+00  0.0000E+00  0.0000E+00
    -14.606  0.0000E+00  0.0000E+00  0.0000E+00
    -14.498  0.0000E+00  0.0000E+00  0.0000E+00
    -14.389  0.0000E+00  0.0000E+00  0.0000E+00
    -14.280  0.0000E+00  0.0000E+00  0.0000E+00
    -14.171  0.0000E+00  0.0000E+00  0.0000E+00
    -14.063  0.0000E+00  0.0000E+00  0.0000E+00
    -13.954  0.0000E+00  0.0000E+00  0.0000E+00
    -13.845  0.0000E+00  0.0000E+00  0.0000E+00
    -13.736  0.0000E+00  0.0000E+00  0.0000E+00
    -13.628  0.0000E+00  0.0000E+00  0.0000E+00
    -13.519  0.0000E+00  0.0000E+00  0.0000E+00
    -13.410  0.4231E-18  0.1692E-17  0.0000E+00
    -13.301  0.4419E+00  0.1685E+01  0.0000E+00
    -13.193  0.0000E+00  0.0000E+00  0.0000E+00
    -13.084  0.0000E+00  0.0000E+00  0.0000E+00
    -12.975  0.0000E+00  0.0000E+00  0.0000E+00
    -12.866  0.0000E+00  0.0000E+00  0.0000E+00
    -12.758  0.0000E+00  0.0000E+00  0.0000E+00
    -12.649  0.0000E+00  0.0000E+00  0.0000E+00