       N       E                     dE             d eps       ncg     rms          ort
DAV:   1     0.347784079776E+05    0.34778E+05   -0.11410E+06  3584   0.486E+03
DAV:   2     0.861579285858E+04   -0.26163E+05   -0.25443E+05  3584   0.168E+03
DAV:   3     0.178922070452E+04   -0.68266E+04   -0.67221E+04  3584   0.499E+02
DAV:   4     0.440107238708E+03   -0.13491E+04   -0.12945E+04  3584   0.207E+02
DAV:   5     0.274842543561E+03   -0.16526E+03   -0.16250E+03  3584   0.777E+01
SDA:   6    -0.448869322113E+03   -0.72371E+03   -0.16250E+03  3584   0.110E+03 0.000E+00
CGA:   7    -0.467609613641E+03   -0.18740E+02   -0.18802E+02  3584   0.392E+02 0.641E+00
CGA:   8    -0.475303749248E+03   -0.76941E+01   -0.76944E+01  3584   0.831E+01 0.330E-02
CGA:   9    -0.478080067548E+03   -0.27763E+01   -0.27763E+01  3584   0.277E+01-0.107E-01
CGA:  10    -0.478959546483E+03   -0.87948E+00   -0.88041E+00  3584   0.101E+01-0.849E-02
CGA:  11    -0.479180980810E+03   -0.22143E+00   -0.22146E+00  3584   0.410E+00-0.149E-02
CGA:  12    -0.479292583112E+03   -0.11160E+00   -0.11171E+00  3584   0.102E+00-0.166E-02
CGA:  13    -0.479327411490E+03   -0.34828E-01   -0.34889E-01  3584   0.311E-01-0.438E-03
CGA:  14    -0.479337527128E+03   -0.10116E-01   -0.10122E-01  3584   0.119E-01-0.496E-04
CGA:  15    -0.479340332551E+03   -0.28054E-02   -0.28080E-02  3584   0.609E-02-0.237E-03
CGA:  16    -0.479341771207E+03   -0.14387E-02   -0.14380E-02  3584   0.183E-02 0.457E-04
CGA:  17    -0.479342443862E+03   -0.67266E-03   -0.68024E-03  3584   0.687E-03-0.530E-04
CGA:  18    -0.479342673416E+03   -0.22955E-03   -0.22918E-03  3584   0.253E-03 0.362E-05
CGA:  19    -0.479342756335E+03   -0.82919E-04   -0.82726E-04  3584   0.894E-04 0.227E-05
CGA:  20    -0.479342784726E+03   -0.28391E-04   -0.27983E-04  3584   0.359E-04 0.620E-05
CGA:  21    -0.479342796850E+03   -0.12123E-04   -0.12608E-04  3584   0.305E-04-0.597E-05
CGA:  22    -0.479342801299E+03   -0.44489E-05   -0.46384E-05  3584   0.909E-05 0.274E-05
CGA:  23    -0.479342803340E+03   -0.20414E-05   -0.20892E-05  3584   0.503E-05 0.129E-05
CGA:  24    -0.479342804830E+03   -0.14903E-05   -0.15370E-05  3584   0.392E-05-0.217E-05
CGA:  25    -0.479342805166E+03   -0.33575E-06   -0.35182E-06  3584   0.199E-05 0.180E-06
CGA:  26    -0.479342805368E+03   -0.20252E-06   -0.24959E-06  3584   0.100E-05 0.383E-06
CGA:  27    -0.479342805666E+03   -0.29728E-06   -0.45854E-06  3584   0.153E-05-0.109E-05
CGA:  28    -0.479342806024E+03   -0.35872E-06   -0.35765E-06  3584   0.303E-06-0.106E-06
CGA:  29    -0.479342806030E+03   -0.55879E-08   -0.26398E-07  3584   0.105E-06 0.139E-06
CGA:  30    -0.479342806031E+03   -0.10186E-08   -0.12366E-07  3584   0.535E-07 0.731E-07
CGA:  31    -0.479342806066E+03   -0.34659E-07    0.14441E-07  3584   0.323E-07 0.268E-07
CGA:  32    -0.479342806064E+03    0.21973E-08   -0.21291E-08  3584   0.239E-07 0.264E-07
   1 F= -.47934281E+03 E0= -.47934281E+03  d E =0.000000E+00
