 vasp.5.4.1 24Jun15 (build Nov 25 2015 16:01:35) complex                        
  
 executed on         CrayXC-Intel date 2016.06.26  15:06:14
 running on 1344 total cores
 distrk:  each k-point on  192 cores,    7 groups
 distr:  one band on NCORES_PER_BAND=  12 cores,   16 groups


--------------------------------------------------------------------------------------------------------


 INCAR:
 POTCAR:    PAW_PBE C 08Apr2002                   
 POTCAR:    PAW_PBE N 08Apr2002                   
 POTCAR:    PAW_PBE H 15Jun2001                   
 POTCAR:    PAW_PBE Pb_d 06Sep2000                
 POTCAR:    PAW_PBE I 08Apr2002                   

 ----------------------------------------------------------------------------- 
|                                                                             |
|           W    W    AA    RRRRR   N    N  II  N    N   GGGG   !!!           |
|           W    W   A  A   R    R  NN   N  II  NN   N  G    G  !!!           |
|           W    W  A    A  R    R  N N  N  II  N N  N  G       !!!           |
|           W WW W  AAAAAA  RRRRR   N  N N  II  N  N N  G  GGG   !            |
|           WW  WW  A    A  R   R   N   NN  II  N   NN  G    G                |
|           W    W  A    A  R    R  N    N  II  N    N   GGGG   !!!           |
|                                                                             |
|      For optimal performance we recommend to set                            |
|        NCORE= 4 - approx SQRT( number of cores)                             |
|      NCORE specifies how many cores store one orbital (NPAR=cpu/NCORE).     |
|      This setting can  greatly improve the performance of VASP for DFT.     |
|      The default, NPAR=number of cores might be grossly inefficient         |
|      on modern multi-core architectures or massively parallel machines.     |
|      Do your own testing !!!!                                               |
|      Unfortunately you need to use the default for GW and RPA calculations. |
|      (for HF NCORE is supported but not extensively tested yet)             |
|                                                                             |
 ----------------------------------------------------------------------------- 


 ----------------------------------------------------------------------------- 
|                                                                             |
|           W    W    AA    RRRRR   N    N  II  N    N   GGGG   !!!           |
|           W    W   A  A   R    R  NN   N  II  NN   N  G    G  !!!           |
|           W    W  A    A  R    R  N N  N  II  N N  N  G       !!!           |
|           W WW W  AAAAAA  RRRRR   N  N N  II  N  N N  G  GGG   !            |
|           WW  WW  A    A  R   R   N   NN  II  N   NN  G    G                |
|           W    W  A    A  R    R  N    N  II  N    N   GGGG   !!!           |
|                                                                             |
|      You have enabled k-point parallelism (KPAR>1).                         |
|      This developmental code was originally  written by Paul Kent at ORNL,  |
|      and carefully double checked in Vienna.                                |
|      GW as well as linear response parallelism added by Martijn Marsman     |
|      and Georg Kresse.                                                      |
|      Carefully verify results versus KPAR=1.                                |
|      Report problems to Paul Kent and Vienna.                               |
|                                                                             |
 ----------------------------------------------------------------------------- 

 POTCAR:    PAW_PBE C 08Apr2002                   
   VRHFIN =C: s2p2                                                              
   LEXCH  = PE                                                                  
   EATOM  =   147.1560 eV,   10.8157 Ry                                         
                                                                                
   TITEL  = PAW_PBE C 08Apr2002                                                 
   LULTRA =        F    use ultrasoft PP ?                                      
   IUNSCR =        1    unscreen: 0-lin 1-nonlin 2-no                           
   RPACOR =    1.200    partial core radius                                     
   POMASS =   12.011; ZVAL   =    4.000    mass and valenz                      
   RCORE  =    1.500    outmost cutoff radius                                   
   RWIGS  =    1.630; RWIGS  =    0.863    wigner-seitz radius (au A)           
   ENMAX  =  400.000; ENMIN  =  300.000 eV                                      
   ICORE  =        2    local potential                                         
   LCOR   =        T    correct aug charges                                     
   LPAW   =        T    paw PP                                                  
   EAUG   =  644.873                                                            
   DEXC   =    0.000                                                            
   RMAX   =    1.529    core radius for proj-oper                               
   RAUG   =    1.300    factor for augmentation sphere                          
   RDEP   =    1.501    radius for radial grids                                 
   RDEPT  =    1.300    core radius for aug-charge                              
                                                                                
   Atomic configuration                                                         
    4 entries                                                                   
     n  l   j            E        occ.                                          
     1  0  0.50      -273.3789   2.0000                                         
     2  0  0.50       -13.7508   2.0000                                         
     2  1  0.50        -5.2854   2.0000                                         
     3  2  1.50        -5.4423   0.0000                                         
   Description                                                                  
     l       E           TYP  RCUT    TYP  RCUT                                 
     0    -13.7508458     23  1.200                                             
     0     -8.2022199     23  1.200                                             
     1     -5.2854383     23  1.500                                             
     1     34.0145650     23  1.500                                             
     2     -5.4423304      7  1.500                                             
  local pseudopotential read in
  partial core-charges read in
  partial kinetic energy density read in
  atomic valenz-charges read in
  non local Contribution for L=           0  read in
    real space projection operators read in
  non local Contribution for L=           0  read in
    real space projection operators read in
  non local Contribution for L=           1  read in
    real space projection operators read in
  non local Contribution for L=           1  read in
    real space projection operators read in
    PAW grid and wavefunctions read in
 
   number of l-projection  operators is LMAX  =           4
   number of lm-projection operators is LMMAX =           8
 
 POTCAR:    PAW_PBE N 08Apr2002                   
   VRHFIN =N: s2p3                                                              
   LEXCH  = PE                                                                  
   EATOM  =   264.5486 eV,   19.4438 Ry                                         
                                                                                
   TITEL  = PAW_PBE N 08Apr2002                                                 
   LULTRA =        F    use ultrasoft PP ?                                      
   IUNSCR =        1    unscreen: 0-lin 1-nonlin 2-no                           
   RPACOR =    1.200    partial core radius                                     
   POMASS =   14.001; ZVAL   =    5.000    mass and valenz                      
   RCORE  =    1.500    outmost cutoff radius                                   
   RWIGS  =    1.400; RWIGS  =    0.741    wigner-seitz radius (au A)           
   ENMAX  =  400.000; ENMIN  =  300.000 eV                                      
   ICORE  =        2    local potential                                         
   LCOR   =        T    correct aug charges                                     
   LPAW   =        T    paw PP                                                  
   EAUG   =  627.112                                                            
   DEXC   =    0.000                                                            
   RMAX   =    1.529    core radius for proj-oper                               
   RAUG   =    1.300    factor for augmentation sphere                          
   RDEP   =    1.514    radius for radial grids                                 
   RDEPT  =    1.338    core radius for aug-charge                              
                                                                                
   Atomic configuration                                                         
    4 entries                                                                   
     n  l   j            E        occ.                                          
     1  0  0.50      -384.7179   2.0000                                         
     2  0  0.50       -18.5828   2.0000                                         
     2  1  0.50        -7.0898   3.0000                                         
     3  2  1.50        -6.8029   0.0000                                         
   Description                                                                  
     l       E           TYP  RCUT    TYP  RCUT                                 
     0    -18.5828119     23  1.200                                             
     0    -13.5018863     23  1.200                                             
     1     -7.0897853     23  1.500                                             
     1      9.5240782     23  1.500                                             
     2     -6.8029130      7  1.500                                             
  local pseudopotential read in
  partial core-charges read in
  partial kinetic energy density read in
  atomic valenz-charges read in
  non local Contribution for L=           0  read in
    real space projection operators read in
  non local Contribution for L=           0  read in
    real space projection operators read in
  non local Contribution for L=           1  read in
    real space projection operators read in
  non local Contribution for L=           1  read in
    real space projection operators read in
    PAW grid and wavefunctions read in
 
   number of l-projection  operators is LMAX  =           4
   number of lm-projection operators is LMMAX =           8
 
 POTCAR:    PAW_PBE H 15Jun2001                   
   VRHFIN =H: ultrasoft test                                                    
   LEXCH  = PE                                                                  
   EATOM  =    12.4884 eV,    0.9179 Ry                                         
                                                                                
   TITEL  = PAW_PBE H 15Jun2001                                                 
   LULTRA =        F    use ultrasoft PP ?                                      
   IUNSCR =        0    unscreen: 0-lin 1-nonlin 2-no                           
   RPACOR =    0.000    partial core radius                                     
   POMASS =    1.000; ZVAL   =    1.000    mass and valenz                      
   RCORE  =    1.100    outmost cutoff radius                                   
   RWIGS  =    0.700; RWIGS  =    0.370    wigner-seitz radius (au A)           
   ENMAX  =  250.000; ENMIN  =  200.000 eV                                      
   RCLOC  =    0.701    cutoff for local pot                                    
   LCOR   =        T    correct aug charges                                     
   LPAW   =        T    paw PP                                                  
   EAUG   =  400.000                                                            
   RMAX   =    1.123    core radius for proj-oper                               
   RAUG   =    1.200    factor for augmentation sphere                          
   RDEP   =    1.112    radius for radial grids                                 
   RDEPT  =    0.926    core radius for aug-charge                              
                                                                                
   Atomic configuration                                                         
    2 entries                                                                   
     n  l   j            E        occ.                                          
     1  0  0.50        -6.4927   1.0000                                         
     2  1  0.50        -3.4015   0.0000                                         
   Description                                                                  
     l       E           TYP  RCUT    TYP  RCUT                                 
     0     -6.4927494     23  1.100                                             
     0      6.8029130     23  1.100                                             
     1     -4.0817478     23  1.100                                             
  local pseudopotential read in
  atomic valenz-charges read in
  non local Contribution for L=           0  read in
    real space projection operators read in
  non local Contribution for L=           0  read in
    real space projection operators read in
  non local Contribution for L=           1  read in
    real space projection operators read in
    PAW grid and wavefunctions read in
 
   number of l-projection  operators is LMAX  =           3
   number of lm-projection operators is LMMAX =           5
 
 POTCAR:    PAW_PBE Pb_d 06Sep2000                
   VRHFIN =Pb:                                                                  
   LEXCH  = PE                                                                  
   EATOM  =  1661.6185 eV,  122.1255 Ry                                         
                                                                                
   TITEL  = PAW_PBE Pb_d 06Sep2000                                              
   LULTRA =        F    use ultrasoft PP ?                                      
   IUNSCR =        1    unscreen: 0-lin 1-nonlin 2-no                           
   RPACOR =    2.200    partial core radius                                     
   POMASS =  207.200; ZVAL   =   14.000    mass and valenz                      
   RCORE  =    2.500    outmost cutoff radius                                   
   RWIGS  =    3.260; RWIGS  =    1.725    wigner-seitz radius (au A)           
   ENMAX  =  237.835; ENMIN  =  178.376 eV                                      
   ICORE  =        3    local potential                                         
   LCOR   =        T    correct aug charges                                     
   LPAW   =        T    paw PP                                                  
   EAUG   =  391.914                                                            
   DEXC   =    0.000                                                            
   RMAX   =    2.565    core radius for proj-oper                               
   RAUG   =    1.300    factor for augmentation sphere                          
   RDEP   =    2.643    radius for radial grids                                 
   RDEPT  =    2.092    core radius for aug-charge                              
                                                                                
   Atomic configuration                                                         
   16 entries                                                                   
     n  l   j            E        occ.                                          
     1  0  0.50    -88091.8466   2.0000                                         
     2  0  0.50    -15753.4197   2.0000                                         
     2  1  1.50    -13508.1797   6.0000                                         
     3  0  0.50     -3781.7194   2.0000                                         
     3  1  1.50     -3138.2529   6.0000                                         
     3  2  2.50     -2483.2977  10.0000                                         
     4  0  0.50      -856.2895   2.0000                                         
     4  1  1.50      -645.4942   6.0000                                         
     4  2  2.50      -401.8768  10.0000                                         
     4  3  3.50      -132.9059  14.0000                                         
     5  0  0.50      -144.0950   2.0000                                         
     5  1  1.50       -85.7879   6.0000                                         
     5  2  2.50       -21.1769  10.0000                                         
     6  0  0.50       -12.0372   2.0000                                         
     6  1  1.50        -3.4971   2.0000                                         
     5  3  2.50        -2.7212   0.0000                                         
   Description                                                                  
     l       E           TYP  RCUT    TYP  RCUT                                 
     2    -21.1768523     23  2.500                                             
     2      1.3605826     23  2.500                                             
     0    -12.0371562     23  2.500                                             
     0     13.6058260     23  2.500                                             
     1     -3.4971339     23  2.500                                             
     1     13.6058260     23  2.500                                             
     3     -1.3605826      7  2.500                                             
  local pseudopotential read in
  partial core-charges read in
  partial kinetic energy density read in
  atomic valenz-charges read in
  non local Contribution for L=           2  read in
    real space projection operators read in
  non local Contribution for L=           2  read in
    real space projection operators read in
  non local Contribution for L=           0  read in
    real space projection operators read in
  non local Contribution for L=           0  read in
    real space projection operators read in
  non local Contribution for L=           1  read in
    real space projection operators read in
  non local Contribution for L=           1  read in
    real space projection operators read in
    PAW grid and wavefunctions read in
 
   number of l-projection  operators is LMAX  =           6
   number of lm-projection operators is LMMAX =          18
 
 POTCAR:    PAW_PBE I 08Apr2002                   
   VRHFIN =I : s2p5                                                             
   LEXCH  = PE                                                                  
   EATOM  =   315.8678 eV,   23.2156 Ry                                         
                                                                                
   TITEL  = PAW_PBE I 08Apr2002                                                 
   LULTRA =        F    use ultrasoft PP ?                                      
   IUNSCR =        1    unscreen: 0-lin 1-nonlin 2-no                           
   RPACOR =    2.200    partial core radius                                     
   POMASS =  126.904; ZVAL   =    7.000    mass and valenz                      
   RCORE  =    2.300    outmost cutoff radius                                   
   RWIGS  =    2.810; RWIGS  =    1.487    wigner-seitz radius (au A)           
   ENMAX  =  175.647; ENMIN  =  131.735 eV                                      
   ICORE  =        3    local potential                                         
   LCOR   =        T    correct aug charges                                     
   LPAW   =        T    paw PP                                                  
   EAUG   =  370.139                                                            
   DEXC   =    0.000                                                            
   RMAX   =    2.359    core radius for proj-oper                               
   RAUG   =    1.300    factor for augmentation sphere                          
   RDEP   =    2.392    radius for radial grids                                 
   RDEPT  =    2.170    core radius for aug-charge                              
                                                                                
   Atomic configuration                                                         
   13 entries                                                                   
     n  l   j            E        occ.                                          
     1  0  0.50    -32976.3739   2.0000                                         
     2  0  0.50     -5094.5933   2.0000                                         
     2  1  1.50     -4572.0131   6.0000                                         
     3  0  0.50     -1028.2813   2.0000                                         
     3  1  1.50      -859.0250   6.0000                                         
     3  2  2.50      -605.7620  10.0000                                         
     4  0  0.50      -180.5540   2.0000                                         
     4  1  1.50      -127.5306   6.0000                                         
     4  2  2.50       -50.2720  10.0000                                         
     5  0  0.50       -17.4058   2.0000                                         
     5  1  0.50        -7.0851   5.0000                                         
     5  2  1.50        -7.0750   0.0000                                         
     4  3  2.50        -7.0750   0.0000                                         
   Description                                                                  
     l       E           TYP  RCUT    TYP  RCUT                                 
     0    -17.4058016     23  2.300                                             
     0    -18.7663842     23  2.300                                             
     1     -7.0850686     23  2.300                                             
     1     -4.2150896     23  2.300                                             
     2     -7.0750295     23  2.300                                             
     3     -1.3605826     23  2.300                                             
  local pseudopotential read in
  partial core-charges read in
  partial kinetic energy density read in
  atomic valenz-charges read in
  non local Contribution for L=           0  read in
    real space projection operators read in
  non local Contribution for L=           0  read in
    real space projection operators read in
  non local Contribution for L=           1  read in
    real space projection operators read in
  non local Contribution for L=           1  read in
    real space projection operators read in
  non local Contribution for L=           2  read in
    real space projection operators read in
    PAW grid and wavefunctions read in
 
   number of l-projection  operators is LMAX  =           5
   number of lm-projection operators is LMMAX =          13
 

 ----------------------------------------------------------------------------- 
|                                                                             |
|  ADVICE TO THIS USER RUNNING 'VASP/VAMP'   (HEAR YOUR MASTER'S VOICE ...):  |
|                                                                             |
|      You have a (more or less) 'large supercell' and for larger cells       |
|      it might be more efficient to use real space projection opertators     |
|      So try LREAL= Auto  in the INCAR   file.                               |
|      Mind: At the moment your POTCAR file does not contain real space       |
|       projectors, and has to be modified,  BUT if you                       |
|      want to do an extremely  accurate calculation you might also keep the  |
|      reciprocal projection scheme          (i.e. LREAL=.FALSE.)             |
|                                                                             |
 ----------------------------------------------------------------------------- 

  PAW_PBE C 08Apr2002                   :
 energy of atom  1       EATOM= -147.1560
 kinetic energy error for atom=    0.0032 (will be added to EATOM!!)
  PAW_PBE N 08Apr2002                   :
 energy of atom  2       EATOM= -264.5486
 kinetic energy error for atom=    0.0061 (will be added to EATOM!!)
  PAW_PBE H 15Jun2001                   :
 energy of atom  3       EATOM=  -12.4884
 kinetic energy error for atom=    0.0002 (will be added to EATOM!!)
  PAW_PBE Pb_d 06Sep2000                :
 energy of atom  4       EATOM=-1661.6185
 kinetic energy error for atom=    0.0012 (will be added to EATOM!!)
  PAW_PBE I 08Apr2002                   :
 energy of atom  5       EATOM= -315.8678
 kinetic energy error for atom=    0.0003 (will be added to EATOM!!)
 
 
 POSCAR: C N H Pb I                              
  positions in direct lattice
  No initial velocities read in
 exchange correlation table for  LEXCH =        8
   RHO(1)=    0.500       N(1)  =     2000
   RHO(2)=  100.500       N(2)  =     4000
 


--------------------------------------------------------------------------------------------------------


 ion  position               nearest neighbor table
   1  0.197  0.250  0.229-  17 1.10  25 1.10  33 1.10   9 1.48
   2  0.697  0.250  0.229-  18 1.10  26 1.10  34 1.10  10 1.48
   3  0.197  0.750  0.229-  19 1.10  27 1.10  35 1.10  11 1.48
   4  0.697  0.750  0.229-  20 1.10  28 1.10  36 1.10  12 1.48
   5  0.197  0.250  0.729-  21 1.10  29 1.10  37 1.10  13 1.48
   6  0.697  0.250  0.729-  22 1.10  30 1.10  38 1.10  14 1.48
   7  0.197  0.750  0.729-  23 1.10  31 1.10  39 1.10  15 1.48
   8  0.697  0.750  0.729-  24 1.10  32 1.10  40 1.10  16 1.48
   9  0.305  0.250  0.274-  57 1.04  41 1.05  49 1.05   1 1.48
  10  0.805  0.250  0.274-  58 1.04  42 1.05  50 1.05   2 1.48
  11  0.305  0.750  0.274-  59 1.04  43 1.05  51 1.05   3 1.48
  12  0.805  0.750  0.274-  60 1.04  44 1.05  52 1.05   4 1.48
  13  0.305  0.250  0.774-  61 1.04  45 1.05  53 1.05   5 1.48
  14  0.805  0.250  0.774-  62 1.04  46 1.05  54 1.05   6 1.48
  15  0.305  0.750  0.774-  63 1.04  47 1.05  55 1.05   7 1.48
  16  0.805  0.750  0.774-  64 1.04  48 1.05  56 1.05   8 1.48
  17  0.205  0.250  0.143-   1 1.10
  18  0.705  0.250  0.143-   2 1.10
  19  0.205  0.750  0.143-   3 1.10
  20  0.705  0.750  0.143-   4 1.10
  21  0.205  0.250  0.643-   5 1.10
  22  0.705  0.250  0.643-   6 1.10
  23  0.205  0.750  0.643-   7 1.10
  24  0.705  0.750  0.643-   8 1.10
  25  0.154  0.322  0.256-   1 1.10
  26  0.654  0.322  0.256-   2 1.10
  27  0.154  0.822  0.256-   3 1.10
  28  0.654  0.822  0.256-   4 1.10
  29  0.154  0.322  0.756-   5 1.10
  30  0.654  0.322  0.756-   6 1.10
  31  0.154  0.822  0.756-   7 1.10
  32  0.654  0.822  0.756-   8 1.10
  33  0.154  0.177  0.256-   1 1.10
  34  0.654  0.177  0.256-   2 1.10
  35  0.154  0.677  0.256-   3 1.10
  36  0.654  0.677  0.256-   4 1.10
  37  0.154  0.177  0.756-   5 1.10
  38  0.654  0.177  0.756-   6 1.10
  39  0.154  0.677  0.756-   7 1.10
  40  0.654  0.677  0.756-   8 1.10
  41  0.348  0.318  0.251-   9 1.05
  42  0.848  0.318  0.251-  10 1.05
  43  0.348  0.818  0.251-  11 1.05
  44  0.848  0.818  0.251-  12 1.05
  45  0.348  0.318  0.751-  13 1.05
  46  0.848  0.318  0.751-  14 1.05
  47  0.348  0.818  0.751-  15 1.05
  48  0.848  0.818  0.751-  16 1.05
  49  0.348  0.182  0.251-   9 1.05
  50  0.848  0.182  0.251-  10 1.05
  51  0.348  0.682  0.251-  11 1.05
  52  0.848  0.682  0.251-  12 1.05
  53  0.348  0.182  0.751-  13 1.05
  54  0.848  0.182  0.751-  14 1.05
  55  0.348  0.682  0.751-  15 1.05
  56  0.848  0.682  0.751-  16 1.05
  57  0.303  0.250  0.356-   9 1.04
  58  0.803  0.250  0.356-  10 1.04
  59  0.303  0.750  0.356-  11 1.04
  60  0.803  0.750  0.356-  12 1.04
  61  0.303  0.250  0.856-  13 1.04
  62  0.803  0.250  0.856-  14 1.04
  63  0.303  0.750  0.856-  15 1.04
  64  0.803  0.750  0.856-  16 1.04
  65  0.472  0.500  0.489-  90 3.08  87 3.14  85 3.14  77 3.17  73 3.22  89 3.25
  66  0.972  0.500  0.489-  89 3.08  88 3.14  86 3.14  78 3.17  74 3.22  90 3.25
  67  0.472  1.000  0.489-  92 3.08  85 3.14  87 3.14  79 3.17  75 3.22  91 3.25
  68  0.972  1.000  0.489-  91 3.08  86 3.14  88 3.14  80 3.17  76 3.22  92 3.25
  69  0.472  0.500  0.989-  94 3.08  83 3.14  81 3.14  73 3.17  77 3.22  93 3.25
  70  0.972  0.500  0.989-  93 3.08  84 3.14  82 3.14  74 3.17  78 3.22  94 3.25
  71  0.472  1.000  0.989-  96 3.08  81 3.14  83 3.14  75 3.17  79 3.22  95 3.25
  72  0.972  1.000  0.989-  95 3.08  82 3.14  84 3.14  76 3.17  80 3.22  96 3.25
  73  0.455  0.500  0.238-  69 3.17  65 3.22
  74  0.955  0.500  0.238-  70 3.17  66 3.22
  75  0.455  1.000  0.238-  71 3.17  67 3.22
  76  0.955  1.000  0.238-  72 3.17  68 3.22
  77  0.455  0.500  0.738-  65 3.17  69 3.22
  78  0.955  0.500  0.738-  66 3.17  70 3.22
  79  0.455  1.000  0.738-  67 3.17  71 3.22
  80  0.955  1.000  0.738-  68 3.17  72 3.22
  81  0.450  0.250  0.012-  71 3.14  69 3.14
  82  0.950  0.250  0.012-  72 3.14  70 3.14
  83  0.450  0.750  0.012-  69 3.14  71 3.14
  84  0.950  0.750  0.012-  70 3.14  72 3.14
  85  0.450  0.250  0.512-  67 3.14  65 3.14
  86  0.950  0.250  0.512-  68 3.14  66 3.14
  87  0.450  0.750  0.512-  65 3.14  67 3.14
  88  0.950  0.750  0.512-  66 3.14  68 3.14
  89  0.216  0.500  0.461-  66 3.08  65 3.25
  90  0.716  0.500  0.461-  65 3.08  66 3.25
  91  0.216  1.000  0.461-  68 3.08  67 3.25
  92  0.716  1.000  0.461-  67 3.08  68 3.25
  93  0.216  0.500  0.961-  70 3.08  69 3.25
  94  0.716  0.500  0.961-  69 3.08  70 3.25
  95  0.216  1.000  0.961-  72 3.08  71 3.25
  96  0.716  1.000  0.961-  71 3.08  72 3.25
 
  LATTYP: Found a triclinic cell.
 ALAT       =    17.8238589327
 B/A-ratio  =     0.6989248630
 C/A-ratio  =     1.0156975818
 COS(alpha) =     0.0001355172
 COS(beta)  =     0.5146378593
 COS(gamma) =     0.6988877578
  
  Lattice vectors:
  
 A1 = (  -0.1406063366, -12.4576271275, -12.7466742118)
 A2 = (  -0.0011956322, -12.4575380825,   0.0007464135)
 A3 = ( -12.7162481321,  -0.0020049566, -12.8856194186)


Analysis of symmetry for initial positions (statically):
=====================================================================
 Subroutine PRICEL returns following result:
 
  LATTYP: Found a triclinic cell.
 ALAT       =     6.2887984198
 B/A-ratio  =     2.2187879235
 C/A-ratio  =     1.0135626932
 COS(alpha) =     0.0099265352
 COS(beta)  =     0.0219221098
 COS(gamma) =     0.4504754319
  
  Lattice vectors:
  
 A1 = (  -6.2884187139,  -0.0009579558,  -0.0690993967)
 A2 = (  -6.2872230816,  12.4565801267,  -0.0698458102)
 A3 = (  -0.0697053522,  -0.0000445225,  -6.3737103126)
 
   4 primitive cells build up your supercell.
 

 Routine SETGRP: Setting up the symmetry group for a 
 triclinic supercell.


 Subroutine GETGRP returns: Found  1 space group operations
 (whereof  1 operations were pure point group operations)
 out of a pool of  2 trial point group operations.


The static configuration has the point symmetry C_1 .


Analysis of symmetry for dynamics (positions and initial velocities):
=====================================================================
 Subroutine PRICEL returns following result:
 
  LATTYP: Found a triclinic cell.
 ALAT       =     6.2887984198
 B/A-ratio  =     2.2187879235
 C/A-ratio  =     1.0135626932
 COS(alpha) =     0.0099265352
 COS(beta)  =     0.0219221098
 COS(gamma) =     0.4504754319
  
  Lattice vectors:
  
 A1 = (  -6.2884187139,  -0.0009579558,  -0.0690993967)
 A2 = (  -6.2872230816,  12.4565801267,  -0.0698458102)
 A3 = (  -0.0697053522,  -0.0000445225,  -6.3737103126)
 
   4 primitive cells build up your supercell.
 

 Routine SETGRP: Setting up the symmetry group for a 
 triclinic supercell.


 Subroutine GETGRP returns: Found  1 space group operations
 (whereof  1 operations were pure point group operations)
 out of a pool of  2 trial point group operations.


The dynamic configuration has the point symmetry C_1 .


 Subroutine INISYM returns: Found  1 space group operations
 (whereof  1 operations are pure point group operations),
 and found     4 'primitive' translations

 
 
 KPOINTS: Automatic 3x3x3                         

Automatic generation of k-mesh.
Space group operators:
 irot       det(A)        alpha          n_x          n_y          n_z        tau_x        tau_y        tau_z
    1     1.000000     0.000000     1.000000     0.000000     0.000000     0.000000     0.000000     0.000000
 
 Subroutine IBZKPT returns following result:
 ===========================================
 
 Found     14 irreducible k-points:
 
 Following reciprocal coordinates:
            Coordinates               Weight
  0.000000  0.000000  0.000000      1.000000
  0.333333 -0.000000 -0.000000      2.000000
  0.000000  0.333333 -0.000000      2.000000
  0.333333  0.333333  0.000000      2.000000
 -0.333333  0.333333  0.000000      2.000000
  0.000000  0.000000  0.333333      2.000000
  0.333333  0.000000  0.333333      2.000000
 -0.333333  0.000000  0.333333      2.000000
  0.000000  0.333333  0.333333      2.000000
  0.333333  0.333333  0.333333      2.000000
 -0.333333  0.333333  0.333333      2.000000
  0.000000 -0.333333  0.333333      2.000000
  0.333333 -0.333333  0.333333      2.000000
 -0.333333 -0.333333  0.333333      2.000000
 
 Following cartesian coordinates:
            Coordinates               Weight
  0.000000  0.000000  0.000000      1.000000
  0.026507 -0.000003 -0.000290      2.000000
 -0.000004  0.026758 -0.000000      2.000000
  0.026503  0.026755 -0.000290      2.000000
 -0.026511  0.026760  0.000290      2.000000
 -0.000287  0.000002  0.026152      2.000000
  0.026220 -0.000001  0.025862      2.000000
 -0.026794  0.000004  0.026442      2.000000
 -0.000291  0.026759  0.026152      2.000000
  0.026215  0.026757  0.025862      2.000000
 -0.026798  0.026762  0.026442      2.000000
 -0.000283 -0.026756  0.026152      2.000000
  0.026224 -0.026759  0.025862      2.000000
 -0.026790 -0.026753  0.026442      2.000000
 
 
 Subroutine IBZKPT_HF returns following result:
 ==============================================
 
 Found     27 k-points in 1st BZ
 the following     27 k-points will be used (e.g. in the exchange kernel)
 Following reciprocal coordinates:   # in IRBZ
  0.000000  0.000000  0.000000    0.03703704   1 t-inv F
  0.333333 -0.000000 -0.000000    0.03703704   2 t-inv F
  0.000000  0.333333 -0.000000    0.03703704   3 t-inv F
  0.333333  0.333333  0.000000    0.03703704   4 t-inv F
 -0.333333  0.333333  0.000000    0.03703704   5 t-inv F
  0.000000  0.000000  0.333333    0.03703704   6 t-inv F
  0.333333  0.000000  0.333333    0.03703704   7 t-inv F
 -0.333333  0.000000  0.333333    0.03703704   8 t-inv F
  0.000000  0.333333  0.333333    0.03703704   9 t-inv F
  0.333333  0.333333  0.333333    0.03703704  10 t-inv F
 -0.333333  0.333333  0.333333    0.03703704  11 t-inv F
  0.000000 -0.333333  0.333333    0.03703704  12 t-inv F
  0.333333 -0.333333  0.333333    0.03703704  13 t-inv F
 -0.333333 -0.333333  0.333333    0.03703704  14 t-inv F
 -0.333333  0.000000  0.000000    0.03703704   2 t-inv T
 -0.000000 -0.333333  0.000000    0.03703704   3 t-inv T
 -0.333333 -0.333333 -0.000000    0.03703704   4 t-inv T
  0.333333 -0.333333 -0.000000    0.03703704   5 t-inv T
 -0.000000  0.000000 -0.333333    0.03703704   6 t-inv T
 -0.333333 -0.000000 -0.333333    0.03703704   7 t-inv T
  0.333333 -0.000000 -0.333333    0.03703704   8 t-inv T
 -0.000000 -0.333333 -0.333333    0.03703704   9 t-inv T
 -0.333333 -0.333333 -0.333333    0.03703704  10 t-inv T
  0.333333 -0.333333 -0.333333    0.03703704  11 t-inv T
 -0.000000  0.333333 -0.333333    0.03703704  12 t-inv T
 -0.333333  0.333333 -0.333333    0.03703704  13 t-inv T
  0.333333  0.333333 -0.333333    0.03703704  14 t-inv T


--------------------------------------------------------------------------------------------------------




 Dimension of arrays:
   k-points           NKPTS =     14   k-points in BZ     NKDIM =     27   number of bands    NBANDS=    256
   number of dos      NEDOS =    301   number of ions     NIONS =     96
   non local maximal  LDIM  =      6   non local SUM 2l+1 LMDIM =     18
   total plane-waves  NPLWV = ******
   max r-space proj   IRMAX =      1   max aug-charges    IRDMAX= 314103
   dimension x,y,z NGX =   112 NGY =  108 NGZ =  112
   dimension x,y,z NGXF=   224 NGYF=  216 NGZF=  224
   support grid    NGXF=   448 NGYF=  432 NGZF=  448
   ions per type =               8   8  48   8  24
 NGX,Y,Z   is equivalent  to a cutoff of  14.80, 14.41, 14.61 a.u.
 NGXF,Y,Z  is equivalent  to a cutoff of  29.61, 28.83, 29.21 a.u.


 I would recommend the setting:
   dimension x,y,z NGX =   109 NGY =  107 NGZ =  110
 SYSTEM =  MAPbI3-Cubic                            
 POSCAR =  C N H Pb I                              

 Startparameter for this run:
   NWRITE =      2    write-flag & timer
   PREC   = accura    normal or accurate (medium, high low for compatibility)
   ISTART =      0    job   : 0-new  1-cont  2-samecut
   ICHARG =      2    charge: 1-file 2-atom 10-const
   ISPIN  =      1    spin polarized calculation?
   LNONCOLLINEAR =      F non collinear calculations
   LSORBIT =      F    spin-orbit coupling
   INIWAV =      1    electr: 0-lowe 1-rand  2-diag
   LASPH  =      F    aspherical Exc in radial PAW
   METAGGA=      F    non-selfconsistent MetaGGA calc.

 Electronic Relaxation 1
   ENCUT  =  700.0 eV  51.45 Ry    7.17 a.u.  27.13 26.87 27.50*2*pi/ulx,y,z
   ENINI  =  700.0     initial cutoff
   ENAUG  =  644.9 eV  augmentation charge cutoff
   NELM   =     60;   NELMIN=  2; NELMDL= -5     # of ELM steps 
   EDIFF  = 0.1E-07   stopping-criterion for ELM
   LREAL  =      F    real-space projection
   NLSPLINE    = F    spline interpolate recip. space projectors
   LCOMPAT=      F    compatible to vasp.4.4
   GGA_COMPAT  = T    GGA compatible to vasp.4.4-vasp.4.6
   LMAXPAW     = -100 max onsite density
   LMAXMIX     =    2 max onsite mixed and CHGCAR
   VOSKOWN=      0    Vosko Wilk Nusair interpolation
   ROPT   =    0.00000   0.00000   0.00000   0.00000
   ROPT   =    0.00000
 Ionic relaxation
   EDIFFG = 0.1E-06   stopping-criterion for IOM
   NSW    =      0    number of steps for IOM
   NBLOCK =      1;   KBLOCK =      1    inner block; outer block 
   IBRION =     -1    ionic relax: 0-MD 1-quasi-New 2-CG
   NFREE  =      0    steps in history (QN), initial steepest desc. (CG)
   ISIF   =      2    stress and relaxation
   IWAVPR =     10    prediction:  0-non 1-charg 2-wave 3-comb
   ISYM   =      3    0-nonsym 1-usesym 2-fastsym
   LCORR  =      T    Harris-Foulkes like correction to forces

   POTIM  = 0.5000    time-step for ionic-motion
   TEIN   =    0.0    initial temperature
   TEBEG  =    0.0;   TEEND  =   0.0 temperature during run
   SMASS  =  -3.00    Nose mass-parameter (am)
   estimated Nose-frequenzy (Omega)   =  0.10E-29 period in steps =****** mass=  -0.362E-26a.u.
   SCALEE = 1.0000    scale energy and forces
   NPACO  =    256;   APACO  = 16.0  distance and # of slots for P.C.
   PSTRESS=    0.0 pullay stress

  Mass of Ions in am
   POMASS =  12.01 14.00  1.00207.20126.90
  Ionic Valenz
   ZVAL   =   4.00  5.00  1.00 14.00  7.00
  Atomic Wigner-Seitz radii
   RWIGS  =  -1.00 -1.00 -1.00 -1.00 -1.00
  virtual crystal weights 
   VCA    =   1.00  1.00  1.00  1.00  1.00
   NELECT =     400.0000    total number of electrons
   NUPDOWN=      -1.0000    fix difference up-down

 DOS related values:
   EMIN   =  10.00;   EMAX   =-10.00  energy-range for DOS
   EFERMI =   0.00
   ISMEAR =     0;   SIGMA  =   0.00  broadening in eV -4-tet -1-fermi 0-gaus

 Electronic relaxation 2 (details)
   IALGO  =     58    algorithm
   LDIAG  =      T    sub-space diagonalisation (order eigenvalues)
   LSUBROT=      F    optimize rotation matrix (better conditioning)
   TURBO    =      0    0=normal 1=particle mesh
   IRESTART =      0    0=no restart 2=restart with 2 vectors
   NREBOOT  =      0    no. of reboots
   NMIN     =      0    reboot dimension
   EREF     =   0.00    reference energy to select bands
   IMIX   =      4    mixing-type and parameters
     AMIX     =   0.40;   BMIX     =  1.00
     AMIX_MAG =   1.60;   BMIX_MAG =  1.00
     AMIN     =   0.10
     WC   =   100.;   INIMIX=   1;  MIXPRE=   1;  MAXMIX= -45

 Intra band minimization:
   WEIMIN = 0.0000     energy-eigenvalue tresh-hold
   EBREAK =  0.98E-11  absolut break condition
   DEPER  =   0.30     relativ break condition  

   TIME   =   0.40     timestep for ELM

  volume/ion in A,a.u.               =      20.80       140.38
  Fermi-wavevector in a.u.,A,eV,Ry     =   0.957863  1.810099 12.483376  0.917502
  Thomas-Fermi vector in A             =   2.086919
 
 Write flags
   LWAVE  =      F    write WAVECAR
   LCHARG =      F    write CHGCAR
   LVTOT  =      F    write LOCPOT, total local potential
   LVHAR  =      F    write LOCPOT, Hartree potential only
   LELF   =      F    write electronic localiz. function (ELF)
   LORBIT =      0    0 simple, 1 ext, 2 COOP (PROOUT)


 Dipole corrections
   LMONO  =      F    monopole corrections only (constant potential shift)
   LDIPOL =      F    correct potential (dipole corrections)
   IDIPOL =      0    1-x, 2-y, 3-z, 4-all directions 
   EPSILON=  1.0000000 bulk dielectric constant

 Core level calculations are selected ICORELEVEL =  1
 Exchange correlation treatment:
   GGA     =    PE    GGA type
   LEXCH   =     8    internal setting for exchange type
   VOSKOWN=      0    Vosko Wilk Nusair interpolation
   EXXOEP  =     0    0=HF, 1=EXX-LHF (local Hartree Fock) 2=EXX OEP
   LHFCALC =     T    Hartree Fock is set to
   LSYMGRAD=     F    symmetrize gradient (conserves proper symmetry)
   PRECFOCK=fast      Normal, Fast or Accurate (Low or Medium for compatibility)
   LRHFCALC=     F    long range Hartree Fock
   LRSCOR  =     F    long range correlation only (use DFT for short range part)
   LTHOMAS =     F    Thomas Fermi screening in HF
   LMODELHF=     F    short range full HF, long range fraction AEXX
   ENCUT4O =  -1.0   cutoff for four orbital integrals eV
   LMAXFOCK=     4    L truncation for augmentation on plane wave grid
   LMAXFOCKAE=  -1    L truncation for all-electron charge restoration on plane wave grid
   NMAXFOCKAE=   1    number of basis functions for all-electron charge restoration
   LFOCKAEDFT=     F  apply the AE augmentation even for DFT
   NKREDX  =     1    reduce k-point grid by
   NKREDY  =     1    reduce k-point grid by
   NKREDZ  =     1    reduce k-point grid by
   SHIFTRED=     F    shift reduced grid of Gamma
   HFKIDENT=     F    idential grid for each k-point
   ODDONLY =     F    use only odd q-grid points
   EVENONLY=     F    use only even q-grid points
   HFALPHA =   -1.0000 decay constant for conv. correction
   MCALPHA =    0.0000 extent of test-charge in conv. correction in multipole expansion
   AEXX    =    0.2500 exact exchange contribution
   HFSCREEN=    0.2070 screening length (either q_TF or 0.3 A-1)
   HFSCREENC=   0.2070 screening length for correlation (either q_TF or 0.3 A-1)
   HFRCUT  =    0.0000 spherical cutoff for potential kernel
   ALDAX   =    0.7500 LDA exchange part
   AGGAX   =    0.7500 GGA exchange part
   ALDAC   =    1.0000 LDA correlation
   AGGAC   =    1.0000 GGA correlation
   NBANDSGWLOW=     1    first orbital included in HF term
   ENCUTFOCK=  -1.0 apply spherical cutoff to Coloumb kernel
 Linear response parameters
   LEPSILON=     F    determine dielectric tensor
   LRPA    =     F    only Hartree local field effects (RPA)
   LNABLA  =     F    use nabla operator in PAW spheres
   LVEL    =     F    velocity operator in full k-point grid
   LINTERFAST=   F  fast interpolation
   KINTER  =     0    interpolate to denser k-point grid
   CSHIFT  =0.1000    complex shift for real part using Kramers Kronig
   OMEGAMAX=  -1.0    maximum frequency
   DEG_THRESHOLD= 0.2000000E-02 threshold for treating states as degnerate
   RTIME   =    0.100 relaxation time in fs

 Orbital magnetization related:
   ORBITALMAG=     F  switch on orbital magnetization
   LCHIMAG   =     F  perturbation theory with respect to B field
   DQ        =  0.001000  dq finite difference perturbation B field



--------------------------------------------------------------------------------------------------------


 Static calculation
 charge density and potential will be updated during run
 non-spin polarized calculation
 Conjugate gradient for all bands (Freysoldt, et al. PRB 79, 241103 (2009))
 preconditioned conjugated gradient                                        
 perform sub-space diagonalisation
    before iterative eigenvector-optimisation
 modified Broyden-mixing scheme, WC =      100.0
 initial mixing is a Kerker type mixing with AMIX =  0.4000 and BMIX =      1.0000
 Hartree-type preconditioning will be used
 using additional bands           56
 reciprocal scheme for non local part
 use partial core corrections
 no Harris-corrections to forces 
 use gradient corrections 
 use of overlap-Matrix (Vanderbilt PP)
 Gauss-broadening in eV      SIGMA  =   0.00


--------------------------------------------------------------------------------------------------------


  energy-cutoff  :      700.00
  volume of cell :     1996.98
      direct lattice vectors                 reciprocal lattice vectors
    12.576837428  0.001915912  0.138198793     0.079520802 -0.000007684 -0.000869670
     0.001195632 12.457538083 -0.000746413    -0.000012224  0.080272684 -0.000000427
     0.139410704  0.000089045 12.747420625    -0.000862111  0.000004784  0.078456671

  length of vectors
    12.577596840 12.457538162 12.748182927     0.079525558  0.080272685  0.078461408


 
 k-points in units of 2pi/SCALE and weight: Automatic 3x3x3                         
   0.00000000  0.00000000  0.00000000       0.037
   0.02650693 -0.00000256 -0.00028989       0.074
  -0.00000407  0.02675756 -0.00000014       0.074
   0.02650286  0.02675500 -0.00029003       0.074
  -0.02651101  0.02676012  0.00028975       0.074
  -0.00028737  0.00000159  0.02615222       0.074
   0.02621956 -0.00000097  0.02586233       0.074
  -0.02679430  0.00000416  0.02644211       0.074
  -0.00029144  0.02675916  0.02615208       0.074
   0.02621549  0.02675659  0.02586219       0.074
  -0.02679838  0.02676172  0.02644197       0.074
  -0.00028330 -0.02675597  0.02615237       0.074
   0.02622364 -0.02675853  0.02586248       0.074
  -0.02679023 -0.02675341  0.02644226       0.074
 
 k-points in reciprocal lattice and weights: Automatic 3x3x3                         
   0.00000000  0.00000000  0.00000000       0.037
   0.33333333 -0.00000000 -0.00000000       0.074
   0.00000000  0.33333333 -0.00000000       0.074
   0.33333333  0.33333333  0.00000000       0.074
  -0.33333333  0.33333333  0.00000000       0.074
   0.00000000  0.00000000  0.33333333       0.074
   0.33333333  0.00000000  0.33333333       0.074
  -0.33333333  0.00000000  0.33333333       0.074
   0.00000000  0.33333333  0.33333333       0.074
   0.33333333  0.33333333  0.33333333       0.074
  -0.33333333  0.33333333  0.33333333       0.074
   0.00000000 -0.33333333  0.33333333       0.074
   0.33333333 -0.33333333  0.33333333       0.074
  -0.33333333 -0.33333333  0.33333333       0.074
 
 position of ions in fractional coordinates (direct lattice) 
   0.19699413  0.24990828  0.22891535
   0.69699413  0.24990828  0.22891535
   0.19699413  0.74990828  0.22891535
   0.69699413  0.74990828  0.22891535
   0.19699413  0.24990828  0.72891535
   0.69699413  0.24990828  0.72891535
   0.19699413  0.74990828  0.72891535
   0.69699413  0.74990828  0.72891535
   0.30453722  0.25000364  0.27388430
   0.80453722  0.25000364  0.27388430
   0.30453722  0.75000364  0.27388430
   0.80453722  0.75000364  0.27388430
   0.30453722  0.25000364  0.77388430
   0.80453722  0.25000364  0.77388430
   0.30453722  0.75000364  0.77388430
   0.80453722  0.75000364  0.77388430
   0.20507517  0.24982110  0.14288863
   0.70507517  0.24982110  0.14288863
   0.20507517  0.74982110  0.14288863
   0.70507517  0.74982110  0.14288863
   0.20507517  0.24982110  0.64288863
   0.70507517  0.24982110  0.64288863
   0.20507517  0.74982110  0.64288863
   0.70507517  0.74982110  0.64288863
   0.15433781  0.32235219  0.25551532
   0.65433781  0.32235219  0.25551532
   0.15433781  0.82235219  0.25551532
   0.65433781  0.82235219  0.25551532
   0.15433781  0.32235219  0.75551532
   0.65433781  0.32235219  0.75551532
   0.15433781  0.82235219  0.75551532
   0.65433781  0.82235219  0.75551532
   0.15444283  0.17747607  0.25565071
   0.65444283  0.17747607  0.25565071
   0.15444283  0.67747607  0.25565071
   0.65444283  0.67747607  0.25565071
   0.15444283  0.17747607  0.75565071
   0.65444283  0.17747607  0.75565071
   0.15444283  0.67747607  0.75565071
   0.65444283  0.67747607  0.75565071
   0.34813458  0.31787428  0.25075649
   0.84813458  0.31787428  0.25075649
   0.34813458  0.81787428  0.25075649
   0.84813458  0.81787428  0.25075649
   0.34813458  0.31787428  0.75075649
   0.84813458  0.31787428  0.75075649
   0.34813458  0.81787428  0.75075649
   0.84813458  0.81787428  0.75075649
   0.34820530  0.18210489  0.25089090
   0.84820530  0.18210489  0.25089090
   0.34820530  0.68210489  0.25089090
   0.84820530  0.68210489  0.25089090
   0.34820530  0.18210489  0.75089090
   0.84820530  0.18210489  0.75089090
   0.34820530  0.68210489  0.75089090
   0.84820530  0.68210489  0.75089090
   0.30317007  0.25009352  0.35560924
   0.80317007  0.25009352  0.35560924
   0.30317007  0.75009352  0.35560924
   0.80317007  0.75009352  0.35560924
   0.30317007  0.25009352  0.85560924
   0.80317007  0.25009352  0.85560924
   0.30317007  0.75009352  0.85560924
   0.80317007  0.75009352  0.85560924
   0.47244178  0.49998979  0.48881145
   0.97244178  0.49998979  0.48881145
   0.47244178  0.99998979  0.48881145
   0.97244178  0.99998979  0.48881145
   0.47244178  0.49998979  0.98881145
   0.97244178  0.49998979  0.98881145
   0.47244178  0.99998979  0.98881145
   0.97244178  0.99998979  0.98881145
   0.45474367  0.49999105  0.23757274
   0.95474367  0.49999105  0.23757274
   0.45474367  0.99999105  0.23757274
   0.95474367  0.99999105  0.23757274
   0.45474367  0.49999105  0.73757274
   0.95474367  0.49999105  0.73757274
   0.45474367  0.99999105  0.73757274
   0.95474367  0.99999105  0.73757274
   0.44963544  0.24997901  0.01183222
   0.94963544  0.24997901  0.01183222
   0.44963544  0.74997901  0.01183222
   0.94963544  0.74997901  0.01183222
   0.44963544  0.24997901  0.51183222
   0.94963544  0.24997901  0.51183222
   0.44963544  0.74997901  0.51183222
   0.94963544  0.74997901  0.51183222
   0.21617144  0.49999744  0.46123970
   0.71617144  0.49999744  0.46123970
   0.21617144  0.99999744  0.46123970
   0.71617144  0.99999744  0.46123970
   0.21617144  0.49999744  0.96123970
   0.71617144  0.49999744  0.96123970
   0.21617144  0.99999744  0.96123970
   0.71617144  0.99999744  0.96123970
 
 position of ions in cartesian coordinates  (Angst):
   2.50977523  3.11363966  2.94511813
   8.79819394  3.11459762  3.01421752
   2.51037304  9.34240870  2.94474492
   8.79879176  9.34336666  3.01384432
   2.57948058  3.11368418  9.31882844
   8.86789929  3.11464214  9.38792784
   2.58007840  9.34245323  9.31845523
   8.86849711  9.34341118  9.38755463
   3.86859641  3.11503773  3.53321840
  10.15701512  3.11599568  3.60231780
   3.86919422  9.34380677  3.53284519
  10.15761294  9.34476473  3.60194459
   3.93830176  3.11508225  9.90692871
  10.22672047  3.11604021  9.97602811
   3.93889958  9.34385129  9.90655551
  10.22731829  9.34480925  9.97565490
   2.59941594  3.11256145  1.84961609
   8.88783465  3.11351941  1.91871549
   2.60001375  9.34133049  1.84924288
   8.88843247  9.34228845  1.91834228
   2.66912129  3.11260597  8.22332640
   8.95754000  3.11356393  8.29242580
   2.66971911  9.34137501  8.22295319
   8.95813782  9.34233297  8.29205259
   1.97708849  4.01603309  3.27824994
   8.26550720  4.01699105  3.34734934
   1.97768630 10.24480213  3.27787673
   8.26610502 10.24576009  3.34697613
   2.04679384  4.01607761  9.65196025
   8.33521255  4.01703557  9.72105965
   2.04739166 10.24484666  9.65158705
   8.33581037 10.24580461  9.72068644
   1.97825505  2.21123361  3.28009843
   8.26667377  2.21219156  3.34919783
   1.97885287  8.44000265  3.27972523
   8.26727158  8.44096060  3.34882462
   2.04796040  2.21127813  9.65380875
   8.33637912  2.21223609  9.72290814
   2.04855822  8.44004717  9.65343554
   8.33697693  8.44100513  9.72253494
   4.41377018  3.96062031  3.24437298
  10.70218890  3.96157826  3.31347237
   4.41436800 10.18938935  3.24399977
  10.70278671 10.19034731  3.31309917
   4.48347553  3.96066483  9.61808329
  10.77189425  3.96162279  9.68718269
   4.48407335 10.18943387  9.61771008
  10.77249206 10.19039183  9.68680948
   4.41451606  2.26926804  3.24619746
  10.70293477  2.27022600  3.31529685
   4.41511388  8.49803708  3.24582425
  10.70353259  8.49899504  3.31492365
   4.48422141  2.26931256  9.61990777
  10.77264013  2.27027052  9.68900717
   4.48481923  8.49808161  9.61953456
  10.77323794  8.49903956  9.68863396
   3.86279548  3.11616208  4.57481169
  10.15121419  3.11712004  4.64391108
   3.86339329  9.34493112  4.57443848
  10.15181201  9.34588908  4.64353788
   3.93250083  3.11620661 10.94852200
  10.22091954  3.11716456 11.01762139
   3.93309864  9.34497565 10.94814879
  10.22151736  9.34593360 11.01724819
   6.01056676  6.22959059  6.29600281
  12.29898548  6.23054855  6.36510220
   6.01116458 12.45835963  6.29562960
  12.29958329 12.45931759  6.36472900
   6.08027211  6.22963512 12.66971312
  12.36869083  6.23059307 12.73881252
   6.08086993 12.45840416 12.66933991
  12.36928864 12.45936211 12.73843931
   5.75295525  6.22954994  3.09091150
  12.04137397  6.23050790  3.16001089
   5.75355307 12.45831898  3.09053829
  12.04197178 12.45927694  3.15963769
   5.82266060  6.22959447  9.46462181
  12.11107932  6.23055242  9.53372121
   5.82325842 12.45836351  9.46424860
  12.11167713 12.45932146  9.53334800
   5.65694025  3.11498556  0.21278274
  11.94535896  3.11594351  0.28188214
   5.65753806  9.34375460  0.21240954
  11.94595678  9.34471256  0.28150893
   5.72664560  3.11503008  6.58649306
  12.01506431  3.11598804  6.65559245
   5.72724341  9.34379912  6.58611985
  12.01566213  9.34475708  6.65521925
   2.78365260  6.22919234  5.90911792
   9.07207132  6.23015030  5.97821731
   2.78425042 12.45796138  5.90874471
   9.07266913 12.45891934  5.97784411
   2.85335795  6.22923686 12.28282823
   9.14177667  6.23019482 12.35192762
   2.85395577 12.45800590 12.28245502
   9.14237448 12.45896386 12.35155442
 


--------------------------------------------------------------------------------------------------------


 k-point  1 :   0.0000 0.0000 0.0000  plane waves:   84007
 k-point  2 :   0.3333-0.0000-0.0000  plane waves:   84003
 k-point  3 :   0.0000 0.3333-0.0000  plane waves:   83995
 k-point  4 :   0.3333 0.3333 0.0000  plane waves:   84018
 k-point  5 :  -0.3333 0.3333 0.0000  plane waves:   84019
 k-point  6 :   0.0000 0.0000 0.3333  plane waves:   83960
 k-point  7 :   0.3333 0.0000 0.3333  plane waves:   83937
 k-point  8 :  -0.3333 0.0000 0.3333  plane waves:   83982
 k-point  9 :   0.0000 0.3333 0.3333  plane waves:   83984
 k-point 10 :   0.3333 0.3333 0.3333  plane waves:   84012
 k-point 11 :  -0.3333 0.3333 0.3333  plane waves:   83970
 k-point 12 :   0.0000-0.3333 0.3333  plane waves:   83977
 k-point 13 :   0.3333-0.3333 0.3333  plane waves:   84013
 k-point 14 :  -0.3333-0.3333 0.3333  plane waves:   83973

 maximum and minimum number of plane-waves per node :      7062     6951

 maximum number of plane-waves:     84019
 maximum index in each direction: 
   IXMAX=   27   IYMAX=   27   IZMAX=   27
   IXMIN=  -27   IYMIN=  -27   IZMIN=  -27

 NGX is ok and might be reduce to 110
 WARNING: aliasing errors must be expected set NGY to 110 to avoid them
 NGZ is ok and might be reduce to 110
 aliasing errors are usually negligible using standard VASP settings
 and one can safely disregard these warnings

 parallel 3D FFT for wavefunctions:
    minimum data exchange during FFTs selected (reduces bandwidth)
 parallel 3D FFT for charge:
    minimum data exchange during FFTs selected (reduces bandwidth)


 FFT grid for exact exchange (Hartree Fock) 
  NGX = 56; NGY = 56; NGZ = 60

 
 Radii for the augmentation spheres in the non-local exchange
 for species   1 augmentation radius   0.944 (default was   0.699)
       energy cutoff for augmentation   2800.0
 for species   2 augmentation radius   0.957 (default was   0.709)
       energy cutoff for augmentation   2800.0
 for species   3 augmentation radius   0.702 (default was   0.520)
       energy cutoff for augmentation   2800.0
 for species   4 augmentation radius   1.558 (default was   1.154)
       energy cutoff for augmentation   2800.0
 for species   5 augmentation radius   1.603 (default was   1.188)
       energy cutoff for augmentation   2800.0

 real space projection operators:
  total allocation   :      10803.62 KBytes
  max/ min on nodes  :       1224.91        473.38

 Maximum index for augmentation-charges in exchange          221
  SETUP_FOCK is finished

 total amount of memory used by VASP on root node   222708. kBytes
========================================================================

   base      :      30000. kBytes
   nonl-proj :      82891. kBytes
   fftplans  :      15020. kBytes
   grid      :      12652. kBytes
   one-center:        124. kBytes
   HF        :        259. kBytes
   nonlr-proj:       4176. kBytes
   wavefun   :      77586. kBytes
 
     INWAV:  cpu time    0.0000: real time    0.0000
 Broyden mixing: mesh for mixing (old mesh)
   NGX = 55   NGY = 53   NGZ = 55
  (NGX  =224   NGY  =216   NGZ  =224)
  gives a total of 160325 points

 initial charge density was supplied:
 charge density of overlapping atoms calculated
 number of electron     400.0000000 magnetization 
 keeping initial charge density in first step


--------------------------------------------------------------------------------------------------------


 Maximum index for augmentation-charges         5136 (set IRDMAX)


--------------------------------------------------------------------------------------------------------


 First call to EWALD:  gamma=   0.141
 Maximum number of real-space cells 3x 3x 3
 Maximum number of reciprocal cells 3x 3x 3

 FEWALD executed in parallel
    FEWALD:  cpu time    0.0200: real time    0.0183


----------------------------------------- Iteration    1(   1)  ---------------------------------------


    POTLOK:  cpu time    0.2600: real time    0.2570
    SETDIJ:  cpu time    0.4960: real time    0.4964
    TRIAL :  cpu time    4.5163: real time    4.5229
    CORREC:  cpu time    0.0080: real time    0.0064
    --------------------------------------------
      LOOP:  cpu time    5.3163: real time    5.4593

 eigenvalue-minimisations  : 11712
 total energy-change (2. order) : 0.3477841E+05  (-0.1140977E+06)
 number of electron     400.0000000 magnetization 
 augmentation part      400.0000000 magnetization 

 Free energy of the ion-electron system (eV)
  ---------------------------------------------------
  alpha Z        PSCENC =       370.05370877
  Ewald energy   TEWEN  =    -15504.44764173
  -Hartree energ DENC   =     -8139.72641594
  -exchange      EXHF   =         0.00000000
  -V(xc)+E(xc)   XCENC  =       254.81436417
  PAW double counting   =     20708.16285019   -20051.16882790
  entropy T*S    EENTRO =        -0.00004179
  eigenvalues    EBANDS =     32460.29497535
  atomic energy  EATOM  =     24680.42500649
  ---------------------------------------------------
  free energy    TOTEN  =     34778.40797761 eV

  energy without entropy =    34778.40801940  energy(sigma->0) =    34778.40799851
  exchange ACFDT corr.  =         0.00000000  see jH, gK, PRB 81, 115126


--------------------------------------------------------------------------------------------------------




----------------------------------------- Iteration    1(   2)  ---------------------------------------


    TRIAL :  cpu time    3.4362: real time    3.6896
    CORREC:  cpu time    0.0040: real time    0.0041
    --------------------------------------------
      LOOP:  cpu time    3.4402: real time    3.8615

 eigenvalue-minimisations  :  8624
 total energy-change (2. order) :-0.2616262E+05  (-0.2544313E+05)
 number of electron     400.0000000 magnetization 
 augmentation part      400.0000000 magnetization 

 Free energy of the ion-electron system (eV)
  ---------------------------------------------------
  alpha Z        PSCENC =       370.05370877
  Ewald energy   TEWEN  =    -15504.44764173
  -Hartree energ DENC   =     -8139.72641594
  -exchange      EXHF   =         0.00000000
  -V(xc)+E(xc)   XCENC  =       254.81436417
  PAW double counting   =     20708.16285019   -20051.16882790
  entropy T*S    EENTRO =        -0.00004179
  eigenvalues    EBANDS =      6297.67985632
  atomic energy  EATOM  =     24680.42500649
  ---------------------------------------------------
  free energy    TOTEN  =      8615.79285858 eV

  energy without entropy =     8615.79290037  energy(sigma->0) =     8615.79287948
  exchange ACFDT corr.  =         0.00000000  see jH, gK, PRB 81, 115126


--------------------------------------------------------------------------------------------------------




----------------------------------------- Iteration    1(   3)  ---------------------------------------


    TRIAL :  cpu time    3.6722: real time    3.6733
    CORREC:  cpu time    0.0000: real time    0.0009
    --------------------------------------------
      LOOP:  cpu time    3.6722: real time    3.6995

 eigenvalue-minimisations  :  9024
 total energy-change (2. order) :-0.6826572E+04  (-0.6722096E+04)
 number of electron     400.0000000 magnetization 
 augmentation part      400.0000000 magnetization 

 Free energy of the ion-electron system (eV)
  ---------------------------------------------------
  alpha Z        PSCENC =       370.05370877
  Ewald energy   TEWEN  =    -15504.44764173
  -Hartree energ DENC   =     -8139.72641594
  -exchange      EXHF   =         0.00000000
  -V(xc)+E(xc)   XCENC  =       254.81436417
  PAW double counting   =     20708.16285019   -20051.16882790
  entropy T*S    EENTRO =        -0.00000000
  eigenvalues    EBANDS =      -528.89233953
  atomic energy  EATOM  =     24680.42500649
  ---------------------------------------------------
  free energy    TOTEN  =      1789.22070452 eV

  energy without entropy =     1789.22070452  energy(sigma->0) =     1789.22070452
  exchange ACFDT corr.  =         0.00000000  see jH, gK, PRB 81, 115126


--------------------------------------------------------------------------------------------------------




----------------------------------------- Iteration    1(   4)  ---------------------------------------


    TRIAL :  cpu time    3.9562: real time    3.9553
    CORREC:  cpu time    0.0000: real time    0.0011
    --------------------------------------------
      LOOP:  cpu time    3.9562: real time    3.9769

 eigenvalue-minimisations  :  9872
 total energy-change (2. order) :-0.1349113E+04  (-0.1294461E+04)
 number of electron     400.0000000 magnetization 
 augmentation part      400.0000000 magnetization 

 Free energy of the ion-electron system (eV)
  ---------------------------------------------------
  alpha Z        PSCENC =       370.05370877
  Ewald energy   TEWEN  =    -15504.44764173
  -Hartree energ DENC   =     -8139.72641594
  -exchange      EXHF   =         0.00000000
  -V(xc)+E(xc)   XCENC  =       254.81436417
  PAW double counting   =     20708.16285019   -20051.16882790
  entropy T*S    EENTRO =        -0.00000000
  eigenvalues    EBANDS =     -1878.00580534
  atomic energy  EATOM  =     24680.42500649
  ---------------------------------------------------
  free energy    TOTEN  =       440.10723871 eV

  energy without entropy =      440.10723871  energy(sigma->0) =      440.10723871
  exchange ACFDT corr.  =         0.00000000  see jH, gK, PRB 81, 115126


--------------------------------------------------------------------------------------------------------




----------------------------------------- Iteration    1(   5)  ---------------------------------------


    TRIAL :  cpu time    3.6762: real time    5.2270
    CORREC:  cpu time    0.0000: real time    0.0016
    CHARGE:  cpu time    0.8681: real time    0.8662
    --------------------------------------------
      LOOP:  cpu time    4.5443: real time    6.2015

 eigenvalue-minimisations  :  9296
 total energy-change (2. order) :-0.1652647E+03  (-0.1624991E+03)
 number of electron     400.0000000 magnetization 
 augmentation part       12.9648122 magnetization 

 Free energy of the ion-electron system (eV)
  ---------------------------------------------------
  alpha Z        PSCENC =       370.05370877
  Ewald energy   TEWEN  =    -15504.44764173
  -Hartree energ DENC   =     -8139.72641594
  -exchange      EXHF   =         0.00000000
  -V(xc)+E(xc)   XCENC  =       254.81436417
  PAW double counting   =     20708.16285019   -20051.16882790
  entropy T*S    EENTRO =        -0.00000000
  eigenvalues    EBANDS =     -2043.27050049
  atomic energy  EATOM  =     24680.42500649
  ---------------------------------------------------
  free energy    TOTEN  =       274.84254356 eV

  energy without entropy =      274.84254356  energy(sigma->0) =      274.84254356
  exchange ACFDT corr.  =         0.00000000  see jH, gK, PRB 81, 115126


--------------------------------------------------------------------------------------------------------




----------------------------------------- Iteration    1(   6)  ---------------------------------------


    POTLOK:  cpu time    0.2560: real time    0.2566
    SETDIJ:  cpu time    0.6440: real time    0.6430
    TRIAL :  cpu time  287.8780: real time  288.0864
    CORREC:  cpu time  288.3860: real time  288.5670
    CHARGE:  cpu time    0.8601: real time    0.8627
    --------------------------------------------
      LOOP:  cpu time  578.0241: real time  578.4285

 eigenvalue-minimisations  :     0
 total energy-change (2. order) :-0.7237119E+03  (-0.1880179E+02)
 number of electron     400.0000000 magnetization 
 augmentation part       13.3095825 magnetization 

 Free energy of the ion-electron system (eV)
  ---------------------------------------------------
  alpha Z        PSCENC =       370.05370877
  Ewald energy   TEWEN  =    -15504.44764173
  -Hartree energ DENC   =     -8212.49336516
  -exchange      EXHF   =       753.58242689
  -V(xc)+E(xc)   XCENC  =       273.96740863
  PAW double counting   =     56145.89713548   -55477.63697187
  entropy T*S    EENTRO =         0.00000000
  eigenvalues    EBANDS =     -3478.21702961
  atomic energy  EATOM  =     24680.42500649
  ---------------------------------------------------
  free energy    TOTEN  =      -448.86932211 eV

  energy without entropy =     -448.86932211  energy(sigma->0) =     -448.86932211
  exchange ACFDT corr.  =         0.00000000  see jH, gK, PRB 81, 115126


--------------------------------------------------------------------------------------------------------




----------------------------------------- Iteration    1(   7)  ---------------------------------------


    POTLOK:  cpu time    0.2680: real time    0.2689
    SETDIJ:  cpu time    0.6120: real time    0.6125
    TRIAL :  cpu time  288.0980: real time  288.2816
    CORREC:  cpu time  288.2860: real time  288.4664
    CHARGE:  cpu time    0.8681: real time    0.8666
    --------------------------------------------
      LOOP:  cpu time  578.1361: real time  578.5290

 eigenvalue-minimisations  :     0
 total energy-change (2. order) :-0.1874029E+02  (-0.7694434E+01)
 number of electron     399.9999999 magnetization 
 augmentation part        9.8400147 magnetization 

 Free energy of the ion-electron system (eV)
  ---------------------------------------------------
  alpha Z        PSCENC =       370.05370877
  Ewald energy   TEWEN  =    -15504.44764173
  -Hartree energ DENC   =     -8486.86112583
  -exchange      EXHF   =       763.06694779
  -V(xc)+E(xc)   XCENC  =       280.55675141
  PAW double counting   =     49992.23191433   -49321.29498192
  entropy T*S    EENTRO =         0.00000000
  eigenvalues    EBANDS =     -3241.34019295
  atomic energy  EATOM  =     24680.42500649
  ---------------------------------------------------
  free energy    TOTEN  =      -467.60961364 eV

  energy without entropy =     -467.60961364  energy(sigma->0) =     -467.60961364
  exchange ACFDT corr.  =         0.00000000  see jH, gK, PRB 81, 115126


--------------------------------------------------------------------------------------------------------




----------------------------------------- Iteration    1(   8)  ---------------------------------------


    POTLOK:  cpu time    0.2600: real time    0.2592
    SETDIJ:  cpu time    0.6400: real time    0.6401
    TRIAL :  cpu time  287.8980: real time  288.1080
    CORREC:  cpu time  288.4860: real time  288.6643
    CHARGE:  cpu time    0.8641: real time    0.8635
    --------------------------------------------
      LOOP:  cpu time  578.1481: real time  578.5461

 eigenvalue-minimisations  :     0
 total energy-change (2. order) :-0.7694136E+01  (-0.2776262E+01)
 number of electron     399.9999999 magnetization 
 augmentation part        9.5290612 magnetization 

 Free energy of the ion-electron system (eV)
  ---------------------------------------------------
  alpha Z        PSCENC =       370.05370877
  Ewald energy   TEWEN  =    -15504.44764173
  -Hartree energ DENC   =     -8411.42099147
  -exchange      EXHF   =       766.18885675
  -V(xc)+E(xc)   XCENC  =       278.69277960
  PAW double counting   =     43808.31824439   -43145.14550522
  entropy T*S    EENTRO =         0.00000000
  eigenvalues    EBANDS =     -3317.96820683
  atomic energy  EATOM  =     24680.42500649
  ---------------------------------------------------
  free energy    TOTEN  =      -475.30374925 eV

  energy without entropy =     -475.30374925  energy(sigma->0) =     -475.30374925
  exchange ACFDT corr.  =         0.00000000  see jH, gK, PRB 81, 115126


--------------------------------------------------------------------------------------------------------




----------------------------------------- Iteration    1(   9)  ---------------------------------------


    POTLOK:  cpu time    0.2640: real time    0.2654
    SETDIJ:  cpu time    0.5920: real time    0.5913
    TRIAL :  cpu time  288.4180: real time  288.6243
    CORREC:  cpu time  288.3940: real time  288.5723
    CHARGE:  cpu time    0.8921: real time    0.8902
    --------------------------------------------
      LOOP:  cpu time  578.5642: real time  578.9984

 eigenvalue-minimisations  :     0
 total energy-change (2. order) :-0.2776318E+01  (-0.8804095E+00)
 number of electron     399.9999999 magnetization 
 augmentation part        9.6099488 magnetization 

 Free energy of the ion-electron system (eV)
  ---------------------------------------------------
  alpha Z        PSCENC =       370.05370877
  Ewald energy   TEWEN  =    -15504.44764173
  -Hartree energ DENC   =     -8458.70981548
  -exchange      EXHF   =       769.32021808
  -V(xc)+E(xc)   XCENC  =       280.24074082
  PAW double counting   =     38458.08435631   -37795.97936938
  entropy T*S    EENTRO =         0.00000000
  eigenvalues    EBANDS =     -3277.06727142
  atomic energy  EATOM  =     24680.42500649
  ---------------------------------------------------
  free energy    TOTEN  =      -478.08006755 eV

  energy without entropy =     -478.08006755  energy(sigma->0) =     -478.08006755
  exchange ACFDT corr.  =         0.00000000  see jH, gK, PRB 81, 115126


--------------------------------------------------------------------------------------------------------




----------------------------------------- Iteration    1(  10)  ---------------------------------------


    POTLOK:  cpu time    0.2600: real time    0.2578
    SETDIJ:  cpu time    0.4760: real time    0.4759
    TRIAL :  cpu time  288.1740: real time  288.3727
    CORREC:  cpu time  288.5340: real time  288.7137
    CHARGE:  cpu time    0.8641: real time    0.8634
    --------------------------------------------
      LOOP:  cpu time  578.3081: real time  579.4677

 eigenvalue-minimisations  :     0
 total energy-change (2. order) :-0.8794789E+00  (-0.2214551E+00)
 number of electron     399.9999999 magnetization 
 augmentation part        9.2542133 magnetization 

 Free energy of the ion-electron system (eV)
  ---------------------------------------------------
  alpha Z        PSCENC =       370.05370877
  Ewald energy   TEWEN  =    -15504.44764173
  -Hartree energ DENC   =     -8460.50888703
  -exchange      EXHF   =       768.78141125
  -V(xc)+E(xc)   XCENC  =       279.53966465
  PAW double counting   =     35908.49105159   -35245.04463316
  entropy T*S    EENTRO =         0.00000000
  eigenvalues    EBANDS =     -3276.24922731
  atomic energy  EATOM  =     24680.42500649
  ---------------------------------------------------
  free energy    TOTEN  =      -478.95954648 eV

  energy without entropy =     -478.95954648  energy(sigma->0) =     -478.95954648
  exchange ACFDT corr.  =         0.00000000  see jH, gK, PRB 81, 115126


--------------------------------------------------------------------------------------------------------




----------------------------------------- Iteration    1(  11)  ---------------------------------------


    POTLOK:  cpu time    0.2600: real time    0.2591
    SETDIJ:  cpu time    0.6400: real time    0.6421
    TRIAL :  cpu time  288.0460: real time  288.2480
    CORREC:  cpu time  288.5260: real time  288.7060
    CHARGE:  cpu time    0.8641: real time    0.8649
    --------------------------------------------
      LOOP:  cpu time  578.3361: real time  578.7344

 eigenvalue-minimisations  :     0
 total energy-change (2. order) :-0.2214343E+00  (-0.1117088E+00)
 number of electron     399.9999999 magnetization 
 augmentation part        9.3554462 magnetization 

 Free energy of the ion-electron system (eV)
  ---------------------------------------------------
  alpha Z        PSCENC =       370.05370877
  Ewald energy   TEWEN  =    -15504.44764173
  -Hartree energ DENC   =     -8433.13019898
  -exchange      EXHF   =       768.20946698
  -V(xc)+E(xc)   XCENC  =       278.61351429
  PAW double counting   =     35297.42841503   -34634.30604011
  entropy T*S    EENTRO =        -0.00000000
  eigenvalues    EBANDS =     -3302.02721154
  atomic energy  EATOM  =     24680.42500649
  ---------------------------------------------------
  free energy    TOTEN  =      -479.18098081 eV

  energy without entropy =     -479.18098081  energy(sigma->0) =     -479.18098081
  exchange ACFDT corr.  =         0.00000000  see jH, gK, PRB 81, 115126


--------------------------------------------------------------------------------------------------------




----------------------------------------- Iteration    1(  12)  ---------------------------------------


    POTLOK:  cpu time    0.2680: real time    0.2667
    SETDIJ:  cpu time    0.5920: real time    0.5934
    TRIAL :  cpu time  288.1660: real time  288.3652
    CORREC:  cpu time  288.3580: real time  288.5412
    CHARGE:  cpu time    0.8961: real time    0.8945
    --------------------------------------------
      LOOP:  cpu time  578.2801: real time  578.7096

 eigenvalue-minimisations  :     0
 total energy-change (2. order) :-0.1116023E+00  (-0.3488864E-01)
 number of electron     399.9999999 magnetization 
 augmentation part        9.3644909 magnetization 

 Free energy of the ion-electron system (eV)
  ---------------------------------------------------
  alpha Z        PSCENC =       370.05370877
  Ewald energy   TEWEN  =    -15504.44764173
  -Hartree energ DENC   =     -8451.52879823
  -exchange      EXHF   =       768.75433199
  -V(xc)+E(xc)   XCENC  =       279.09070745
  PAW double counting   =     35180.26710839   -34516.64719669
  entropy T*S    EENTRO =        -0.00000000
  eigenvalues    EBANDS =     -3285.25980955
  atomic energy  EATOM  =     24680.42500649
  ---------------------------------------------------
  free energy    TOTEN  =      -479.29258311 eV

  energy without entropy =     -479.29258311  energy(sigma->0) =     -479.29258311
  exchange ACFDT corr.  =         0.00000000  see jH, gK, PRB 81, 115126


--------------------------------------------------------------------------------------------------------




----------------------------------------- Iteration    1(  13)  ---------------------------------------


    POTLOK:  cpu time    0.2640: real time    0.2628
    SETDIJ:  cpu time    0.6000: real time    0.5998
    TRIAL :  cpu time  288.3100: real time  288.4955
    CORREC:  cpu time  288.4260: real time  288.6042
    CHARGE:  cpu time    0.8601: real time    0.8624
    --------------------------------------------
      LOOP:  cpu time  578.4602: real time  578.8729

 eigenvalue-minimisations  :     0
 total energy-change (2. order) :-0.3482838E-01  (-0.1012216E-01)
 number of electron     399.9999999 magnetization 
 augmentation part        9.3434564 magnetization 

 Free energy of the ion-electron system (eV)
  ---------------------------------------------------
  alpha Z        PSCENC =       370.05370877
  Ewald energy   TEWEN  =    -15504.44764173
  -Hartree energ DENC   =     -8451.66637272
  -exchange      EXHF   =       768.84741444
  -V(xc)+E(xc)   XCENC  =       279.15475272
  PAW double counting   =     35378.23572965   -34714.61277654
  entropy T*S    EENTRO =         0.00000000
  eigenvalues    EBANDS =     -3285.31723257
  atomic energy  EATOM  =     24680.42500649
  ---------------------------------------------------
  free energy    TOTEN  =      -479.32741149 eV

  energy without entropy =     -479.32741149  energy(sigma->0) =     -479.32741149
  exchange ACFDT corr.  =         0.00000000  see jH, gK, PRB 81, 115126


--------------------------------------------------------------------------------------------------------




----------------------------------------- Iteration    1(  14)  ---------------------------------------


    POTLOK:  cpu time    0.2600: real time    0.2602
    SETDIJ:  cpu time    0.6400: real time    0.6407
    TRIAL :  cpu time  288.0260: real time  288.2289
    CORREC:  cpu time  288.4060: real time  288.5843
    CHARGE:  cpu time    0.8761: real time    0.8768
    --------------------------------------------
      LOOP:  cpu time  578.2121: real time  578.6034

 eigenvalue-minimisations  :     0
 total energy-change (2. order) :-0.1011564E-01  (-0.2807953E-02)
 number of electron     399.9999999 magnetization 
 augmentation part        9.3748139 magnetization 

 Free energy of the ion-electron system (eV)
  ---------------------------------------------------
  alpha Z        PSCENC =       370.05370877
  Ewald energy   TEWEN  =    -15504.44764173
  -Hartree energ DENC   =     -8448.88622753
  -exchange      EXHF   =       768.77946229
[...]


 FORCES acting on ions:
    Electron-Ion                     Ewald-Force                    Non-Local-Force
 -----------------------------------------------------------------------------------------------
   0.869E+02 0.561E-01 0.371E+02   -.942E+02 -.646E-01 -.403E+02   0.673E+01 0.776E-02 0.297E+01
   0.869E+02 0.561E-01 0.371E+02   -.942E+02 -.646E-01 -.403E+02   0.673E+01 0.776E-02 0.297E+01
   0.869E+02 0.561E-01 0.371E+02   -.942E+02 -.646E-01 -.403E+02   0.673E+01 0.776E-02 0.297E+01
   0.869E+02 0.561E-01 0.371E+02   -.942E+02 -.646E-01 -.403E+02   0.673E+01 0.776E-02 0.297E+01
   0.869E+02 0.561E-01 0.371E+02   -.942E+02 -.646E-01 -.403E+02   0.673E+01 0.776E-02 0.297E+01
   0.869E+02 0.561E-01 0.371E+02   -.942E+02 -.646E-01 -.403E+02   0.673E+01 0.776E-02 0.297E+01
   0.869E+02 0.561E-01 0.371E+02   -.942E+02 -.646E-01 -.403E+02   0.673E+01 0.776E-02 0.297E+01
   0.869E+02 0.561E-01 0.371E+02   -.942E+02 -.646E-01 -.403E+02   0.673E+01 0.776E-02 0.297E+01
   -.381E+02 -.957E-01 -.175E+02   0.373E+02 0.928E-01 0.168E+02   0.123E+01 0.296E-02 0.861E+00
   -.381E+02 -.957E-01 -.175E+02   0.373E+02 0.928E-01 0.168E+02   0.123E+01 0.296E-02 0.861E+00
   -.381E+02 -.957E-01 -.175E+02   0.373E+02 0.928E-01 0.168E+02   0.123E+01 0.296E-02 0.861E+00
   -.381E+02 -.957E-01 -.175E+02   0.373E+02 0.928E-01 0.168E+02   0.123E+01 0.296E-02 0.861E+00
   -.381E+02 -.957E-01 -.175E+02   0.373E+02 0.928E-01 0.168E+02   0.123E+01 0.296E-02 0.861E+00
   -.381E+02 -.957E-01 -.175E+02   0.373E+02 0.928E-01 0.168E+02   0.123E+01 0.296E-02 0.861E+00
   -.381E+02 -.957E-01 -.175E+02   0.373E+02 0.928E-01 0.168E+02   0.123E+01 0.296E-02 0.861E+00
   -.381E+02 -.957E-01 -.175E+02   0.373E+02 0.928E-01 0.168E+02   0.123E+01 0.296E-02 0.861E+00
   0.561E+01 0.476E-01 0.526E+02   -.531E+01 -.532E-01 -.581E+02   -.311E+00 0.570E-02 0.564E+01
   0.561E+01 0.476E-01 0.526E+02   -.531E+01 -.532E-01 -.581E+02   -.311E+00 0.570E-02 0.564E+01
   0.561E+01 0.476E-01 0.526E+02   -.531E+01 -.532E-01 -.581E+02   -.311E+00 0.570E-02 0.564E+01
   0.561E+01 0.476E-01 0.526E+02   -.531E+01 -.532E-01 -.581E+02   -.311E+00 0.570E-02 0.564E+01
   0.561E+01 0.476E-01 0.526E+02   -.531E+01 -.532E-01 -.581E+02   -.311E+00 0.570E-02 0.564E+01
   0.561E+01 0.476E-01 0.526E+02   -.531E+01 -.532E-01 -.581E+02   -.311E+00 0.570E-02 0.564E+01
   0.561E+01 0.476E-01 0.526E+02   -.531E+01 -.532E-01 -.581E+02   -.311E+00 0.570E-02 0.564E+01
   0.561E+01 0.476E-01 0.526E+02   -.531E+01 -.532E-01 -.581E+02   -.311E+00 0.570E-02 0.564E+01
   0.307E+02 -.394E+02 -.103E+02   -.334E+02 0.439E+02 0.118E+02   0.284E+01 -.459E+01 -.163E+01
   0.307E+02 -.394E+02 -.103E+02   -.334E+02 0.439E+02 0.118E+02   0.284E+01 -.459E+01 -.163E+01
   0.307E+02 -.394E+02 -.103E+02   -.334E+02 0.439E+02 0.118E+02   0.284E+01 -.459E+01 -.163E+01
   0.307E+02 -.394E+02 -.103E+02   -.334E+02 0.439E+02 0.118E+02   0.284E+01 -.459E+01 -.163E+01
   0.307E+02 -.394E+02 -.103E+02   -.334E+02 0.439E+02 0.118E+02   0.284E+01 -.459E+01 -.163E+01
   0.307E+02 -.394E+02 -.103E+02   -.334E+02 0.439E+02 0.118E+02   0.284E+01 -.459E+01 -.163E+01
   0.307E+02 -.394E+02 -.103E+02   -.334E+02 0.439E+02 0.118E+02   0.284E+01 -.459E+01 -.163E+01
   0.307E+02 -.394E+02 -.103E+02   -.334E+02 0.439E+02 0.118E+02   0.284E+01 -.459E+01 -.163E+01
   0.306E+02 0.394E+02 -.103E+02   -.334E+02 -.439E+02 0.119E+02   0.283E+01 0.459E+01 -.164E+01
   0.306E+02 0.394E+02 -.103E+02   -.334E+02 -.439E+02 0.119E+02   0.283E+01 0.459E+01 -.164E+01
   0.306E+02 0.394E+02 -.103E+02   -.334E+02 -.439E+02 0.119E+02   0.283E+01 0.459E+01 -.164E+01
   0.306E+02 0.394E+02 -.103E+02   -.334E+02 -.439E+02 0.119E+02   0.283E+01 0.459E+01 -.164E+01
   0.306E+02 0.394E+02 -.103E+02   -.334E+02 -.439E+02 0.119E+02   0.283E+01 0.459E+01 -.164E+01
   0.306E+02 0.394E+02 -.103E+02   -.334E+02 -.439E+02 0.119E+02   0.283E+01 0.459E+01 -.164E+01
   0.306E+02 0.394E+02 -.103E+02   -.334E+02 -.439E+02 0.119E+02   0.283E+01 0.459E+01 -.164E+01
   0.306E+02 0.394E+02 -.103E+02   -.334E+02 -.439E+02 0.119E+02   0.283E+01 0.459E+01 -.164E+01
   -.336E+02 -.486E+02 0.174E+02   0.370E+02 0.538E+02 -.192E+02   -.354E+01 -.548E+01 0.186E+01
   -.336E+02 -.486E+02 0.174E+02   0.370E+02 0.538E+02 -.192E+02   -.354E+01 -.548E+01 0.186E+01
   -.336E+02 -.486E+02 0.174E+02   0.370E+02 0.538E+02 -.192E+02   -.354E+01 -.548E+01 0.186E+01
   -.336E+02 -.486E+02 0.174E+02   0.370E+02 0.538E+02 -.192E+02   -.354E+01 -.548E+01 0.186E+01
   -.336E+02 -.486E+02 0.174E+02   0.370E+02 0.538E+02 -.192E+02   -.354E+01 -.548E+01 0.186E+01
   -.336E+02 -.486E+02 0.174E+02   0.370E+02 0.538E+02 -.192E+02   -.354E+01 -.548E+01 0.186E+01
   -.336E+02 -.486E+02 0.174E+02   0.370E+02 0.538E+02 -.192E+02   -.354E+01 -.548E+01 0.186E+01
   -.336E+02 -.486E+02 0.174E+02   0.370E+02 0.538E+02 -.192E+02   -.354E+01 -.548E+01 0.186E+01
   -.337E+02 0.486E+02 0.173E+02   0.370E+02 -.538E+02 -.191E+02   -.355E+01 0.548E+01 0.185E+01
   -.337E+02 0.486E+02 0.173E+02   0.370E+02 -.538E+02 -.191E+02   -.355E+01 0.548E+01 0.185E+01
   -.337E+02 0.486E+02 0.173E+02   0.370E+02 -.538E+02 -.191E+02   -.355E+01 0.548E+01 0.185E+01
   -.337E+02 0.486E+02 0.173E+02   0.370E+02 -.538E+02 -.191E+02   -.355E+01 0.548E+01 0.185E+01
   -.337E+02 0.486E+02 0.173E+02   0.370E+02 -.538E+02 -.191E+02   -.355E+01 0.548E+01 0.185E+01
   -.337E+02 0.486E+02 0.173E+02   0.370E+02 -.538E+02 -.191E+02   -.355E+01 0.548E+01 0.185E+01
   -.337E+02 0.486E+02 0.173E+02   0.370E+02 -.538E+02 -.191E+02   -.355E+01 0.548E+01 0.185E+01
   -.337E+02 0.486E+02 0.173E+02   0.370E+02 -.538E+02 -.191E+02   -.355E+01 0.548E+01 0.185E+01
   0.376E+01 -.741E-01 -.648E+02   -.378E+01 0.813E-01 0.715E+02   -.127E-01 -.752E-02 -.694E+01
   0.376E+01 -.741E-01 -.648E+02   -.378E+01 0.813E-01 0.715E+02   -.127E-01 -.752E-02 -.694E+01
   0.376E+01 -.741E-01 -.648E+02   -.378E+01 0.813E-01 0.715E+02   -.127E-01 -.752E-02 -.694E+01
   0.376E+01 -.741E-01 -.648E+02   -.378E+01 0.813E-01 0.715E+02   -.127E-01 -.752E-02 -.694E+01
   0.376E+01 -.741E-01 -.648E+02   -.378E+01 0.813E-01 0.715E+02   -.127E-01 -.752E-02 -.694E+01
   0.376E+01 -.741E-01 -.648E+02   -.378E+01 0.813E-01 0.715E+02   -.127E-01 -.752E-02 -.694E+01
   0.376E+01 -.741E-01 -.648E+02   -.378E+01 0.813E-01 0.715E+02   -.127E-01 -.752E-02 -.694E+01
   0.376E+01 -.741E-01 -.648E+02   -.378E+01 0.813E-01 0.715E+02   -.127E-01 -.752E-02 -.694E+01
   -.316E+02 0.674E-01 -.118E+02   0.302E+02 -.738E-01 0.114E+02   0.126E+01 0.562E-02 0.326E+00
   -.316E+02 0.674E-01 -.118E+02   0.302E+02 -.738E-01 0.114E+02   0.126E+01 0.562E-02 0.326E+00
   -.316E+02 0.674E-01 -.118E+02   0.302E+02 -.738E-01 0.114E+02   0.126E+01 0.563E-02 0.326E+00
   -.316E+02 0.674E-01 -.118E+02   0.302E+02 -.738E-01 0.114E+02   0.126E+01 0.563E-02 0.326E+00
   -.316E+02 0.674E-01 -.118E+02   0.302E+02 -.738E-01 0.114E+02   0.126E+01 0.562E-02 0.326E+00
   -.316E+02 0.674E-01 -.118E+02   0.302E+02 -.738E-01 0.114E+02   0.126E+01 0.562E-02 0.326E+00
   -.316E+02 0.674E-01 -.118E+02   0.302E+02 -.738E-01 0.114E+02   0.126E+01 0.563E-02 0.326E+00
   -.316E+02 0.674E-01 -.118E+02   0.302E+02 -.738E-01 0.114E+02   0.126E+01 0.563E-02 0.326E+00
   -.173E+02 0.396E-01 0.563E+01   0.175E+02 -.404E-01 -.556E+01   -.111E+00 0.573E-03 -.764E-01
   -.173E+02 0.396E-01 0.563E+01   0.175E+02 -.404E-01 -.556E+01   -.111E+00 0.573E-03 -.764E-01
   -.173E+02 0.396E-01 0.563E+01   0.175E+02 -.404E-01 -.556E+01   -.111E+00 0.572E-03 -.764E-01
   -.173E+02 0.396E-01 0.563E+01   0.175E+02 -.404E-01 -.556E+01   -.111E+00 0.572E-03 -.764E-01
   -.173E+02 0.396E-01 0.563E+01   0.175E+02 -.404E-01 -.556E+01   -.111E+00 0.573E-03 -.764E-01
   -.173E+02 0.396E-01 0.563E+01   0.175E+02 -.404E-01 -.556E+01   -.111E+00 0.573E-03 -.764E-01
   -.173E+02 0.396E-01 0.563E+01   0.175E+02 -.404E-01 -.556E+01   -.111E+00 0.572E-03 -.764E-01
   -.173E+02 0.396E-01 0.563E+01   0.175E+02 -.404E-01 -.556E+01   -.111E+00 0.572E-03 -.764E-01
   -.143E+02 -.542E-01 -.162E+02   0.142E+02 0.556E-01 0.168E+02   0.123E+00 -.108E-02 -.577E+00
   -.143E+02 -.542E-01 -.162E+02   0.142E+02 0.556E-01 0.168E+02   0.123E+00 -.108E-02 -.577E+00
   -.143E+02 -.541E-01 -.162E+02   0.142E+02 0.556E-01 0.168E+02   0.123E+00 -.108E-02 -.577E+00
   -.143E+02 -.541E-01 -.162E+02   0.142E+02 0.556E-01 0.168E+02   0.123E+00 -.108E-02 -.577E+00
   -.143E+02 -.542E-01 -.162E+02   0.142E+02 0.556E-01 0.168E+02   0.123E+00 -.108E-02 -.577E+00
   -.143E+02 -.541E-01 -.162E+02   0.142E+02 0.556E-01 0.168E+02   0.123E+00 -.108E-02 -.577E+00
   -.143E+02 -.541E-01 -.162E+02   0.142E+02 0.556E-01 0.168E+02   0.123E+00 -.108E-02 -.577E+00
   -.143E+02 -.542E-01 -.162E+02   0.142E+02 0.556E-01 0.168E+02   0.123E+00 -.108E-02 -.577E+00
   0.367E+01 0.111E-01 -.252E+01   -.311E+01 -.106E-01 0.210E+01   -.561E+00 -.631E-03 0.428E+00
   0.367E+01 0.111E-01 -.252E+01   -.311E+01 -.106E-01 0.210E+01   -.561E+00 -.631E-03 0.428E+00
   0.367E+01 0.111E-01 -.252E+01   -.311E+01 -.106E-01 0.210E+01   -.561E+00 -.632E-03 0.428E+00
   0.367E+01 0.111E-01 -.252E+01   -.311E+01 -.106E-01 0.210E+01   -.561E+00 -.632E-03 0.428E+00
   0.367E+01 0.111E-01 -.252E+01   -.311E+01 -.106E-01 0.210E+01   -.561E+00 -.631E-03 0.428E+00
   0.367E+01 0.111E-01 -.252E+01   -.311E+01 -.106E-01 0.210E+01   -.561E+00 -.631E-03 0.428E+00
   0.367E+01 0.111E-01 -.252E+01   -.311E+01 -.106E-01 0.210E+01   -.561E+00 -.632E-03 0.428E+00
   0.367E+01 0.111E-01 -.252E+01   -.311E+01 -.106E-01 0.210E+01   -.561E+00 -.632E-03 0.428E+00
 -----------------------------------------------------------------------------------------------
   -.592E+02 -.119E+00 -.263E+02   0.739E-12 0.289E-12 0.394E-12   0.554E+02 0.111E+00 0.247E+02
 
 
 POSITION                                       TOTAL-FORCE (eV/Angst)
 -----------------------------------------------------------------------------------
      2.50978      3.11364      2.94512        -0.271406     -0.000365     -0.111930
      8.79819      3.11460      3.01422        -0.271406     -0.000365     -0.111930
      2.51037      9.34241      2.94474        -0.271407     -0.000365     -0.111930
      8.79879      9.34337      3.01384        -0.271407     -0.000365     -0.111930
      2.57948      3.11368      9.31883        -0.271406     -0.000365     -0.111930
      8.86790      3.11464      9.38793        -0.271406     -0.000365     -0.111930
      2.58008      9.34245      9.31846        -0.271407     -0.000365     -0.111930
      8.86850      9.34341      9.38755        -0.271407     -0.000365     -0.111930
      3.86860      3.11504      3.53322         0.479568      0.000239      0.198786
     10.15702      3.11600      3.60232         0.479568      0.000239      0.198786
      3.86919      9.34381      3.53285         0.479568      0.000240      0.198787
     10.15761      9.34476      3.60194         0.479568      0.000240      0.198787
      3.93830      3.11508      9.90693         0.479568      0.000239      0.198786
     10.22672      3.11604      9.97603         0.479568      0.000239      0.198786
      3.93890      9.34385      9.90656         0.479568      0.000240      0.198787
     10.22732      9.34481      9.97565         0.479568      0.000240      0.198787
      2.59942      3.11256      1.84962        -0.021842      0.000444      0.393086
      8.88783      3.11352      1.91872        -0.021842      0.000444      0.393086
      2.60001      9.34133      1.84924        -0.021843      0.000444      0.393086
      8.88843      9.34229      1.91834        -0.021843      0.000444      0.393086
      2.66912      3.11261      8.22333        -0.021842      0.000444      0.393086
      8.95754      3.11356      8.29243        -0.021842      0.000444      0.393086
      2.66972      9.34138      8.22295        -0.021843      0.000444      0.393086
      8.95814      9.34233      8.29205        -0.021843      0.000444      0.393086
      1.97709      4.01603      3.27825         0.205933     -0.322254     -0.112740
      8.26551      4.01699      3.34735         0.205933     -0.322254     -0.112740
      1.97769     10.24480      3.27788         0.205934     -0.322254     -0.112740
      8.26611     10.24576      3.34698         0.205934     -0.322254     -0.112740
      2.04679      4.01608      9.65196         0.205933     -0.322254     -0.112740
      8.33521      4.01704      9.72106         0.205933     -0.322254     -0.112740
      2.04739     10.24485      9.65159         0.205934     -0.322254     -0.112740
      8.33581     10.24580      9.72069         0.205934     -0.322254     -0.112740
      1.97826      2.21123      3.28010         0.205418      0.322626     -0.113511
      8.26667      2.21219      3.34920         0.205418      0.322626     -0.113511
      1.97885      8.44000      3.27973         0.205418      0.322626     -0.113511
      8.26727      8.44096      3.34882         0.205418      0.322626     -0.113511
      2.04796      2.21128      9.65381         0.205418      0.322626     -0.113511
      8.33638      2.21224      9.72291         0.205418      0.322626     -0.113511
      2.04856      8.44005      9.65344         0.205418      0.322626     -0.113511
      8.33698      8.44101      9.72253         0.205418      0.322626     -0.113511
      4.41377      3.96062      3.24437        -0.320908     -0.489790      0.154310
     10.70219      3.96158      3.31347        -0.320908     -0.489790      0.154310
      4.41437     10.18939      3.24400        -0.320908     -0.489791      0.154310
     10.70279     10.19035      3.31310        -0.320908     -0.489791      0.154310
      4.48348      3.96066      9.61808        -0.320908     -0.489790      0.154310
     10.77189      3.96162      9.68718        -0.320908     -0.489790      0.154310
      4.48407     10.18943      9.61771        -0.320908     -0.489791      0.154310
     10.77249     10.19039      9.68681        -0.320908     -0.489791      0.154310
      4.41452      2.26927      3.24620        -0.321311      0.490128      0.153064
     10.70293      2.27023      3.31530        -0.321311      0.490128      0.153064
      4.41511      8.49804      3.24582        -0.321311      0.490128      0.153065
     10.70353      8.49900      3.31492        -0.321311      0.490128      0.153065
      4.48422      2.26931      9.61991        -0.321311      0.490128      0.153064
     10.77264      2.27027      9.68901        -0.321311      0.490128      0.153064
      4.48482      8.49808      9.61953        -0.321311      0.490128      0.153065
     10.77324      8.49904      9.68863        -0.321311      0.490128      0.153065
      3.86280      3.11616      4.57481        -0.034979     -0.000706     -0.586836
     10.15121      3.11712      4.64391        -0.034979     -0.000706     -0.586836
      3.86339      9.34493      4.57444        -0.034979     -0.000706     -0.586836
     10.15181      9.34589      4.64354        -0.034979     -0.000706     -0.586836
      3.93250      3.11621     10.94852        -0.034979     -0.000706     -0.586836
     10.22092      3.11716     11.01762        -0.034979     -0.000706     -0.586836
      3.93310      9.34498     10.94815        -0.034979     -0.000706     -0.586836
     10.22152      9.34593     11.01725        -0.034979     -0.000706     -0.586836
      6.01057      6.22959      6.29600         0.011465     -0.000200      0.010810
     12.29899      6.23055      6.36510         0.011465     -0.000200      0.010810
      6.01116     12.45836      6.29563         0.011464     -0.000201      0.010810
     12.29958     12.45932      6.36473         0.011464     -0.000201      0.010810
      6.08027      6.22964     12.66971         0.011465     -0.000200      0.010810
     12.36869      6.23059     12.73881         0.011465     -0.000200      0.010810
      6.08087     12.45840     12.66934         0.011464     -0.000201      0.010810
     12.36929     12.45936     12.73844         0.011464     -0.000201      0.010810
      5.75296      6.22955      3.09091         0.044525     -0.000218     -0.015407
     12.04137      6.23051      3.16001         0.044525     -0.000218     -0.015407
      5.75355     12.45832      3.09054         0.044525     -0.000218     -0.015408
     12.04197     12.45928      3.15964         0.044525     -0.000218     -0.015408
      5.82266      6.22959      9.46462         0.044525     -0.000218     -0.015407
     12.11108      6.23055      9.53372         0.044525     -0.000218     -0.015407
      5.82326     12.45836      9.46425         0.044525     -0.000218     -0.015408
     12.11168     12.45932      9.53335         0.044525     -0.000218     -0.015408
      5.65694      3.11499      0.21278         0.046171      0.000283      0.003247
     11.94536      3.11594      0.28188         0.046171      0.000283      0.003247
      5.65754      9.34375      0.21241         0.046171      0.000284      0.003247
     11.94596      9.34471      0.28151         0.046171      0.000284      0.003247
      5.72665      3.11503      6.58649         0.046171      0.000283      0.003247
     12.01506      3.11599      6.65559         0.046171      0.000283      0.003247
      5.72724      9.34380      6.58612         0.046171      0.000284      0.003247
     12.01566      9.34476      6.65522         0.046171      0.000284      0.003247
      2.78365      6.22919      5.90912        -0.022633     -0.000186      0.027120
      9.07207      6.23015      5.97822        -0.022633     -0.000186      0.027120
      2.78425     12.45796      5.90874        -0.022633     -0.000187      0.027120
      9.07267     12.45892      5.97784        -0.022633     -0.000187      0.027120
      2.85336      6.22924     12.28283        -0.022633     -0.000186      0.027120
      9.14178      6.23019     12.35193        -0.022633     -0.000186      0.027120
      2.85396     12.45801     12.28246        -0.022633     -0.000187      0.027120
      9.14237     12.45896     12.35155        -0.022633     -0.000187      0.027120
 -----------------------------------------------------------------------------------
    total drift:                                0.009678      0.000450     -0.007753


--------------------------------------------------------------------------------------------------------



  FREE ENERGIE OF THE ION-ELECTRON SYSTEM (eV)
  ---------------------------------------------------
  free  energy   TOTEN  =      -479.34280606 eV

  energy  without entropy=     -479.34280606  energy(sigma->0) =     -479.34280606
 


--------------------------------------------------------------------------------------------------------


    POTLOK:  cpu time    1.1801: real time    1.1809


--------------------------------------------------------------------------------------------------------


     LOOP+:  cpu time16643.1161: real time16657.9208
    4ORBIT:  cpu time    0.0000: real time    0.0000

 total amount of memory used by VASP on root node   247521. kBytes
========================================================================

   base      :      30000. kBytes
   nonl-proj :      82891. kBytes
   fftplans  :      15020. kBytes
   grid      :      12652. kBytes
   one-center:        124. kBytes
   HF        :        259. kBytes
   nonlr-proj:      28989. kBytes
   wavefun   :      77586. kBytes
 
  
  
 General timing and accounting informations for this job:
 ========================================================
  
                  Total CPU time used (sec):    16692.799
                            User time (sec):    16681.927
                          System time (sec):       10.873
                         Elapsed time (sec):    16725.989
  
                   Maximum memory used (kb):      383768.
                   Average memory used (kb):           0.
  
                          Minor page faults:       145298
                          Major page faults:            0
                 Voluntary context switches:          968
