   2   2   1   0
  0.2258839E+02  0.3997699E-09  0.3997699E-09  0.3997699E-09  0.5000000E-15
  1.000000000000000E-004
  CAR 
 Name                                    
     20.92593549    -15.60783796  301      3.64850513      1.00000000
    -15.608  0.0000E+00  0.0000E+00
    -15.486  0.0000E+00  0.0000E+00
    -15.364  0.0000E+00  0.0000E+00
    -15.243  0.0000E+00  0.0000E+00
    -15.121  0.0000E+00  0.0000E+00
    -14.999  0.0000E+00  0.0000E+00
    -14.877  0.0000E+00  0.0000E+00
    -14.755  0.0000E+00  0.0000E+00
    -14.634  0.0000E+00  0.0000E+00
    -14.512  0.0000E+00  0.0000E+00
    -14.390  0.0000E+00  0.0000E+00
    -14.268  0.0000E+00  0.0000E+00
    -14.146  0.0000E+00  0.0000E+00
    -14.025  0.0000E+00  0.0000E+00
    -13.903  0.1386E+02  0.1688E+01
    -13.781  0.5511E+02  0.8730E+01
    -13.659  0.0000E+00  0.1000E+02
    -13.538  0.0000E+00  0.1000E+02
    -13.416  0.0000E+00  0.1000E+02
    -13.294  0.0000E+00  0.1000E+02
    -13.172  0.0000E+00  0.1000E+02
    -13.050  0.0000E+00  0.1000E+02
    -12.929  0.0000E+00  0.1000E+02
    -12.807  0.0000E+00  0.1000E+02
    -12.685  0.0000E+00  0.1000E+02
    -12.563  0.0000E+00  0.1000E+02
    -12.442  0.0000E+00  0.1000E+02
    -12.320  0.0000E+00  0.1000E+02
    -12.198  0.0000E+00  0.1000E+02
    -12.076  0.0000E+00  0.1000E+02
    -11.954  0.0000E+00  0.1000E+02
    -11.833  0.0000E+00  0.1000E+02
    -11.711  0.0000E+00  0.1000E+02
    -11.589  0.0000E+00  0.1000E+02
    -11.467  0.0000E+00  0.1000E+02
    -11.346  0.0000E+00  0.1000E+02
    -11.224  0.0000E+00  0.1000E+02
    -11.102  0.0000E+00  0.1000E+02
    -10.980  0.0000E+00  0.1000E+02
    -10.858  0.0000E+00  0.1000E+02
    -10.737  0.0000E+00  0.1000E+02
    -10.615  0.0000E+00  0.1000E+02
    -10.493  0.1703E-07  0.1000E+02
    -10.371  0.0000E+00  0.1001E+02
    -10.250  0.0000E+00  0.1001E+02
    -10.128  0.1148E-01  0.1001E+02
    -10.006  0.4649E-01  0.1009E+02
     -9.884  0.0000E+00  0.1014E+02
     -9.762  0.0000E+00  0.1014E+02
     -9.641  0.0000E+00  0.1014E+02
     -9.519  0.9124E+00  0.1025E+02
     -9.397  0.0000E+00  0.1025E+02
     -9.275  0.1837E+00  0.1027E+02
     -9.154  0.6083E+00  0.1055E+02
     -9.032  0.0000E+00  0.1055E+02
     -8.910  0.0000E+00  0.1055E+02
     -8.788  0.6459E-05  0.1055E+02
     -8.666  0.1801E-03  0.1060E+02
     -8.545  0.4615E-01  0.1083E+02
     -8.423  0.1825E+01  0.1108E+02
     -8.301  0.0000E+00  0.1131E+02
     -8.179  0.0000E+00  0.1131E+02
     -8.058  0.1013E-15  0.1131E+02
     -7.936  0.2287E+01  0.1158E+02
     -7.814  0.0000E+00  0.1186E+02
     -7.692  0.2291E+00  0.1189E+02
     -7.570  0.0000E+00  0.1200E+02
     -7.449  0.0000E+00  0.1200E+02
     -7.327  0.0000E+00  0.1200E+02
     -7.205  0.0000E+00  0.1200E+02
     -7.083  0.0000E+00  0.1200E+02
     -6.962  0.0000E+00  0.1200E+02
     -6.840  0.0000E+00  0.1200E+02
     -6.718  0.0000E+00  0.1200E+02
     -6.596  0.0000E+00  0.1200E+02
     -6.474  0.0000E+00  0.1200E+02
     -6.353  0.0000E+00  0.1200E+02
     -6.231  0.0000E+00  0.1200E+02
     -6.109  0.0000E+00  0.1200E+02
     -5.987  0.0000E+00  0.1200E+02
     -5.865  0.0000E+00  0.1200E+02
     -5.744  0.0000E+00  0.1200E+02
     -5.622  0.0000E+00  0.1200E+02
     -5.500  0.0000E+00  0.1200E+02
     -5.378  0.0000E+00  0.1200E+02
     -5.257  0.0000E+00  0.1200E+02
     -5.135  0.0000E+00  0.1200E+02
     -5.013  0.0000E+00  0.1200E+02
     -4.891  0.0000E+00  0.1200E+02
     -4.769  0.0000E+00  0.1200E+02
     -4.648  0.0000E+00  0.1200E+02
     -4.526  0.0000E+00  0.1200E+02
     -4.404  0.0000E+00  0.1200E+02
     -4.282  0.0000E+00  0.1200E+02
     -4.161  0.0000E+00  0.1200E+02
     -4.039  0.0000E+00  0.1200E+02
     -3.917  0.5312E-10  0.1200E+02
     -3.795  0.2281E+00  0.1203E+02
     -3.673  0.1216E+01  0.1218E+02
     -3.552  0.9909E-11  0.1218E+02
     -3.430  0.2741E+01  0.1251E+02
     -3.308  0.0000E+00  0.1295E+02
     -3.186  0.0000E+00  0.1295E+02
     -3.065  0.0000E+00  0.1295E+02
     -2.943  0.4543E+00  0.1301E+02
     -2.821  0.0000E+00  0.1318E+02
     -2.699  0.1825E+01  0.1340E+02
     -2.577  0.0000E+00  0.1340E+02
     -2.456  0.0000E+00  0.1340E+02
     -2.334  0.9822E-13  0.1340E+02
     -2.212  0.1051E+01  0.1353E+02
     -2.090  0.0000E+00  0.1353E+02
     -1.969  0.0000E+00  0.1353E+02
     -1.847  0.0000E+00  0.1353E+02
     -1.725  0.0000E+00  0.1353E+02
     -1.603  0.1013E-15  0.1353E+02
     -1.481  0.1825E+01  0.1375E+02
     -1.360  0.0000E+00  0.1375E+02
     -1.238  0.0000E+00  0.1375E+02
     -1.116  0.0000E+00  0.1375E+02
     -0.994  0.0000E+00  0.1375E+02
     -0.873  0.7345E-04  0.1375E+02
     -0.751  0.9124E+00  0.1397E+02
     -0.629  0.0000E+00  0.1397E+02
     -0.507  0.0000E+00  0.1397E+02
     -0.385  0.1825E+01  0.1419E+02
     -0.264  0.0000E+00  0.1419E+02
     -0.142  0.1962E-04  0.1419E+02
     -0.020  0.8841E+00  0.1441E+02
      0.102  0.2737E+01  0.1486E+02
      0.223  0.0000E+00  0.1486E+02
      0.345  0.0000E+00  0.1486E+02
      0.467  0.3986E-03  0.1486E+02
      0.589  0.6136E-02  0.1508E+02
      0.711  0.3098E+00  0.1518E+02
      0.832  0.4562E+00  0.1549E+02
      0.954  0.1822E+01  0.1593E+02
      1.076  0.3402E-04  0.1594E+02
      1.198  0.0000E+00  0.1605E+02
      1.319  0.2297E+01  0.1633E+02
      1.441  0.9124E+00  0.1649E+02
      1.563  0.1373E+01  0.1666E+02
      1.685  0.3039E-15  0.1671E+02
      1.807  0.1837E+01  0.1694E+02
      1.928  0.0000E+00  0.1716E+02
      2.050  0.0000E+00  0.1716E+02
      2.172  0.3994E-10  0.1716E+02
      2.294  0.2423E+01  0.1745E+02
      2.415  0.3911E-02  0.1745E+02
      2.537  0.1215E+01  0.1771E+02
      2.659  0.0000E+00  0.1771E+02
      2.781  0.0000E+00  0.1771E+02
      2.903  0.3456E-09  0.1771E+02
      3.024  0.9124E+00  0.1782E+02
      3.146  0.1217E+01  0.1797E+02
      3.268  0.0000E+00  0.1797E+02
      3.390  0.0000E+00  0.1797E+02
      3.512  0.1500E+00  0.1799E+02
      3.633  0.0000E+00  0.1800E+02
      3.755  0.0000E+00  0.1800E+02
      3.877  0.0000E+00  0.1800E+02
      3.999  0.0000E+00  0.1800E+02
      4.120  0.0000E+00  0.1800E+02
      4.242  0.0000E+00  0.1800E+02
      4.364  0.0000E+00  0.1800E+02
      4.486  0.0000E+00  0.1800E+02
      4.608  0.0000E+00  0.1800E+02
      4.729  0.0000E+00  0.1800E+02
      4.851  0.0000E+00  0.1800E+02
      4.973  0.7603E-01  0.1801E+02
      5.095  0.0000E+00  0.1801E+02
      5.216  0.1148E-14  0.1801E+02
      5.338  0.3041E+00  0.1805E+02
      5.460  0.2583E-10  0.1805E+02
      5.582  0.7743E+00  0.1814E+02
      5.704  0.4575E-04  0.1815E+02
      5.825  0.5802E-02  0.1820E+02
      5.947  0.4260E-02  0.1823E+02
      6.069  0.1825E+01  0.1853E+02
      6.191  0.0000E+00  0.1853E+02
      6.312  0.0000E+00  0.1853E+02
      6.434  0.7730E-04  0.1853E+02
      6.556  0.2265E-07  0.1864E+02
      6.678  0.0000E+00  0.1886E+02
      6.800  0.3898E+01  0.1934E+02
      6.921  0.4562E+00  0.1942E+02
      7.043  0.9124E+00  0.1953E+02
      7.165  0.0000E+00  0.1953E+02
      7.287  0.0000E+00  0.1953E+02
      7.408  0.1019E-07  0.1953E+02
      7.530  0.9124E+00  0.1969E+02
      7.652  0.1825E+01  0.1992E+02
      7.774  0.2105E+01  0.2017E+02
      7.896  0.0000E+00  0.2025E+02
      8.017  0.1825E+01  0.2047E+02
      8.139  0.8348E-07  0.2050E+02
      8.261  0.1629E+01  0.2092E+02
      8.383  0.0000E+00  0.2094E+02
      8.504  0.0000E+00  0.2094E+02
      8.626  0.5455E+00  0.2101E+02
      8.748  0.6899E-10  0.2131E+02
      8.870  0.2737E+01  0.2165E+02
      8.992  0.1520E+01  0.2183E+02
      9.113  0.3650E+01  0.2228E+02
      9.235  0.0000E+00  0.2228E+02
      9.357  0.3350E-06  0.2228E+02
      9.479  0.0000E+00  0.2250E+02
      9.600  0.0000E+00  0.2250E+02
      9.722  0.1481E+01  0.2268E+02
      9.844  0.0000E+00  0.2283E+02
      9.966  0.1387E+00  0.2285E+02
     10.088  0.9124E+00  0.2317E+02
     10.209  0.1823E+01  0.2339E+02
     10.331  0.1823E-14  0.2339E+02
     10.453  0.9124E+00  0.2350E+02
     10.575  0.1825E+01  0.2372E+02
     10.696  0.4120E-02  0.2372E+02
     10.818  0.0000E+00  0.2394E+02
     10.940  0.0000E+00  0.2394E+02
     11.062  0.0000E+00  0.2394E+02
     11.184  0.0000E+00  0.2394E+02
     11.305  0.0000E+00  0.2394E+02
     11.427  0.0000E+00  0.2394E+02
     11.549  0.1825E+01  0.2417E+02
     11.671  0.2198E+01  0.2443E+02
     11.792  0.1510E+01  0.2468E+02
     11.914  0.6928E+00  0.2483E+02
     12.036  0.5986E-12  0.2507E+02
     12.158  0.1118E+01  0.2521E+02
     12.280  0.2737E+01  0.2556E+02
     12.401  0.9123E+00  0.2568E+02
     12.523  0.0000E+00  0.2590E+02
     12.645  0.2020E+00  0.2592E+02
     12.767  0.0000E+00  0.2601E+02
     12.889  0.4775E-06  0.2601E+02
     13.010  0.0000E+00  0.2623E+02
     13.132  0.1468E-03  0.2623E+02
     13.254  0.7080E+00  0.2654E+02
     13.376  0.1451E-01  0.2659E+02
     13.497  0.2170E+01  0.2707E+02
     13.619  0.0000E+00  0.2725E+02
     13.741  0.0000E+00  0.2725E+02
     13.863  0.0000E+00  0.2725E+02
     13.985  0.1825E+01  0.2747E+02
     14.106  0.1340E+00  0.2749E+02
     14.228  0.1217E+01  0.2773E+02
     14.350  0.1923E-08  0.2779E+02
     14.472  0.2737E+01  0.2812E+02
     14.593  0.4236E-01  0.2813E+02
     14.715  0.0000E+00  0.2836E+02
     14.837  0.0000E+00  0.2836E+02
     14.959  0.2532E-16  0.2836E+02
     15.081  0.8150E+00  0.2846E+02
     15.202  0.0000E+00  0.2851E+02
     15.324  0.1002E+01  0.2863E+02
     15.446  0.1826E+01  0.2906E+02
     15.568  0.0000E+00  0.2929E+02
     15.689  0.0000E+00  0.2929E+02
     15.811  0.2039E+01  0.2954E+02
     15.933  0.0000E+00  0.2965E+02
     16.055  0.0000E+00  0.2965E+02
     16.177  0.1050E-10  0.2965E+02
     16.298  0.1825E+01  0.2987E+02
     16.420  0.1825E+01  0.3009E+02
     16.542  0.1117E+00  0.3016E+02
     16.664  0.0000E+00  0.3044E+02
     16.785  0.0000E+00  0.3044E+02
     16.907  0.1849E+01  0.3067E+02
     17.029  0.9124E+00  0.3100E+02
     17.151  0.0000E+00  0.3100E+02
     17.273  0.0000E+00  0.3100E+02
     17.394  0.0000E+00  0.3100E+02
     17.516  0.8235E+00  0.3110E+02
     17.638  0.0000E+00  0.3122E+02
     17.760  0.1825E+01  0.3144E+02
     17.881  0.4562E+00  0.3150E+02
     18.003  0.2271E+01  0.3178E+02
     18.125  0.3818E+00  0.3182E+02
     18.247  0.0000E+00  0.3189E+02
     18.369  0.0000E+00  0.3189E+02
     18.490  0.0000E+00  0.3189E+02
     18.612  0.0000E+00  0.3189E+02
     18.734  0.0000E+00  0.3189E+02
     18.856  0.0000E+00  0.3189E+02
     18.977  0.1570E-14  0.3189E+02
     19.099  0.9124E+00  0.3200E+02
     19.221  0.0000E+00  0.3200E+02
     19.343  0.0000E+00  0.3200E+02
     19.465  0.0000E+00  0.3200E+02
     19.586  0.0000E+00  0.3200E+02
     19.708  0.0000E+00  0.3200E+02
     19.830  0.0000E+00  0.3200E+02
     19.952  0.0000E+00  0.3200E+02
     20.073  0.0000E+00  0.3200E+02
     20.195  0.0000E+00  0.3200E+02
     20.317  0.0000E+00  0.3200E+02
     20.439  0.0000E+00  0.3200E+02
     20.561  0.0000E+00  0.3200E+02
     20.682  0.0000E+00  0.3200E+02
     20.804  0.0000E+00  0.3200E+02
     20.926  0.0000E+00  0.3200E+02
     20.92593549    -15.60783796  301      3.64850513      1.00000000
    -15.608  0.0000E+00  0.0000E+00  0.0000E+00
    -15.486  0.0000E+00  0.0000E+00  0.0000E+00
    -15.364  0.0000E+00  0.0000E+00  0.0000E+00
    -15.243  0.0000E+00  0.0000E+00  0.0000E+00
    -15.121  0.0000E+00  0.0000E+00  0.0000E+00
    -14.999  0.0000E+00  0.0000E+00  0.0000E+00
    -14.877  0.0000E+00  0.0000E+00  0.0000E+00
    -14.755  0.0000E+00  0.0000E+00  0.0000E+00
    -14.634  0.0000E+00  0.0000E+00  0.0000E+00
    -14.512  0.0000E+00  0.0000E+00  0.0000E+00
    -14.390  0.0000E+00  0.0000E+00  0.0000E+00
    -14.268  0.0000E+00  0.0000E+00  0.0000E+00
    -14.146  0.0000E+00  0.0000E+00  0.0000E+00
    -14.025  0.0000E+00  0.0000E+00  0.0000E+00
    -13.903  0.3241E-02  0.6606E-02  0.1341E+02
    -13.781  0.4572E-03  0.1953E-02  0.5450E+02
    -13.659  0.0000E+00  0.0000E+00  0.0000E+00
    -13.538  0.0000E+00  0.0000E+00  0.0000E+00
    -13.416  0.0000E+00  0.0000E+00  0.0000E+00
    -13.294  0.0000E+00  0.0000E+00  0.0000E+00
    -13.172  0.0000E+00  0.0000E+00  0.0000E+00
    -13.050  0.0000E+00  0.0000E+00  0.0000E+00
    -12.929  0.0000E+00  0.0000E+00  0.0000E+00
    -12.807  0.0000E+00  0.0000E+00  0.0000E+00
    -12.685  0.0000E+00  0.0000E+00  0.0000E+00
    -12.563  0.0000E+00  0.0000E+00  0.0000E+00
    -12.442  0.0000E+00  0.0000E+00  0.0000E+00
    -12.320  0.0000E+00  0.0000E+00  0.0000E+00
    -12.198  0.0000E+00  0.0000E+00  0.0000E+00
    -12.076  0.0000E+00  0.0000E+00  0.0000E+00
    -11.954  0.0000E+00  0.0000E+00  0.0000E+00
    -11.833  0.0000E+00  0.0000E+00  0.0000E+00
    -11.711  0.0000E+00  0.0000E+00  0.0000E+00
    -11.589  0.0000E+00  0.0000E+00  0.0000E+00
    -11.467  0.0000E+00  0.0000E+00  0.0000E+00
    -11.346  0.0000E+00  0.0000E+00  0.0000E+00
    -11.224  0.0000E+00  0.0000E+00  0.0000E+00
    -11.102  0.0000E+00  0.0000E+00  0.0000E+00
    -10.980  0.0000E+00  0.0000E+00  0.0000E+00
    -10.858  0.0000E+00  0.0000E+00  0.0000E+00
    -10.737  0.0000E+00  0.0000E+00  0.0000E+00
    -10.615  0.0000E+00  0.0000E+00  0.0000E+00
    -10.493  0.2975E-08  0.4537E-20  0.6596E-19
    -10.371  0.0000E+00  0.0000E+00  0.0000E+00
    -10.250  0.0000E+00  0.0000E+00  0.0000E+00
    -10.128  0.1881E-02  0.5777E-04  0.7204E-04
    -10.006  0.7433E-02  0.3219E-03  0.3628E-03
     -9.884  0.0000E+00  0.0000E+00  0.0000E+00
     -9.762  0.0000E+00  0.0000E+00  0.0000E+00
     -9.641  0.0000E+00  0.0000E+00  0.0000E+00
     -9.519  0.1316E+00  0.1200E-01  0.1303E-01
     -9.397  0.0000E+00  0.0000E+00  0.0000E+00
     -9.275  0.2401E-01  0.3364E-02  0.3290E-02
     -9.154  0.7831E-01  0.1111E-01  0.1218E-01
     -9.032  0.0000E+00  0.0000E+00  0.0000E+00
     -8.910  0.0000E+00  0.0000E+00  0.0000E+00
     -8.788  0.6587E-06  0.1853E-06  0.1453E-06
     -8.666  0.1745E-04  0.5068E-05  0.4935E-05
     -8.545  0.4118E-02  0.1323E-02  0.1440E-02
     -8.423  0.1556E+00  0.5944E-01  0.5055E-01
     -8.301  0.0000E+00  0.0000E+00  0.0000E+00
     -8.179  0.0000E+00  0.0000E+00  0.0000E+00
     -8.058  0.4031E-17  0.4610E-17  0.3368E-17
     -7.936  0.8891E-01  0.1038E+00  0.7758E-01
     -7.814  0.0000E+00  0.0000E+00  0.0000E+00
     -7.692  0.5946E-11  0.1298E-01  0.8319E-02
     -7.570  0.0000E+00  0.0000E+00  0.0000E+00
     -7.449  0.0000E+00  0.0000E+00  0.0000E+00
     -7.327  0.0000E+00  0.0000E+00  0.0000E+00
     -7.205  0.0000E+00  0.0000E+00  0.0000E+00
     -7.083  0.0000E+00  0.0000E+00  0.0000E+00
     -6.962  0.0000E+00  0.0000E+00  0.0000E+00
     -6.840  0.0000E+00  0.0000E+00  0.0000E+00
     -6.718  0.0000E+00  0.0000E+00  0.0000E+00
     -6.596  0.0000E+00  0.0000E+00  0.0000E+00
     -6.474  0.0000E+00  0.0000E+00  0.0000E+00
     -6.353  0.0000E+00  0.0000E+00  0.0000E+00
     -6.231  0.0000E+00  0.0000E+00  0.0000E+00
     -6.109  0.0000E+00  0.0000E+00  0.0000E+00
     -5.987  0.0000E+00  0.0000E+00  0.0000E+00
     -5.865  0.0000E+00  0.0000E+00  0.0000E+00
     -5.744  0.0000E+00  0.0000E+00  0.0000E+00
     -5.622  0.0000E+00  0.0000E+00  0.0000E+00
     -5.500  0.0000E+00  0.0000E+00  0.0000E+00
     -5.378  0.0000E+00  0.0000E+00  0.0000E+00
     -5.257  0.0000E+00  0.0000E+00  0.0000E+00
     -5.135  0.0000E+00  0.0000E+00  0.0000E+00
     -5.013  0.0000E+00  0.0000E+00  0.0000E+00
     -4.891  0.0000E+00  0.0000E+00  0.0000E+00
     -4.769  0.0000E+00  0.0000E+00  0.0000E+00
     -4.648  0.0000E+00  0.0000E+00  0.0000E+00
     -4.526  0.0000E+00  0.0000E+00  0.0000E+00
     -4.404  0.0000E+00  0.0000E+00  0.0000E+00
     -4.282  0.0000E+00  0.0000E+00  0.0000E+00
     -4.161  0.0000E+00  0.0000E+00  0.0000E+00
     -4.039  0.0000E+00  0.0000E+00  0.0000E+00
     -3.917  0.2301E-10  0.1628E-21  0.2844E-12
     -3.795  0.9880E-01  0.6989E-12  0.1221E-02
     -3.673  0.4943E+00  0.1886E-01  0.2218E-02
     -3.552  0.3921E-11  0.2049E-12  0.2417E-13
     -3.430  0.1094E+01  0.5348E-01  0.7363E-02
     -3.308  0.0000E+00  0.0000E+00  0.0000E+00
     -3.186  0.0000E+00  0.0000E+00  0.0000E+00
     -3.065  0.0000E+00  0.0000E+00  0.0000E+00
     -2.943  0.1246E+00  0.2493E-01  0.3557E-02
     -2.821  0.0000E+00  0.0000E+00  0.0000E+00
     -2.699  0.6040E+00  0.6121E-01  0.2222E-01
     -2.577  0.0000E+00  0.0000E+00  0.0000E+00
     -2.456  0.0000E+00  0.0000E+00  0.0000E+00
     -2.334  0.2085E-13  0.7118E-14  0.1238E-14
     -2.212  0.2694E+00  0.5684E-01  0.1660E-01
     -2.090  0.0000E+00  0.0000E+00  0.0000E+00
     -1.969  0.0000E+00  0.0000E+00  0.0000E+00
     -1.847  0.0000E+00  0.0000E+00  0.0000E+00
     -1.725  0.0000E+00  0.0000E+00  0.0000E+00
     -1.603  0.2436E-16  0.5939E-17  0.2030E-17
     -1.481  0.4388E+00  0.1070E+00  0.3657E-01
     -1.360  0.0000E+00  0.0000E+00  0.0000E+00
     -1.238  0.0000E+00  0.0000E+00  0.0000E+00
     -1.116  0.0000E+00  0.0000E+00  0.0000E+00
     -0.994  0.0000E+00  0.0000E+00  0.0000E+00
     -0.873  0.1595E-04  0.4805E-05  0.1749E-05
     -0.751  0.4356E-02  0.1440E+00  0.8292E-02
     -0.629  0.0000E+00  0.0000E+00  0.0000E+00
     -0.507  0.0000E+00  0.0000E+00  0.0000E+00
     -0.385  0.4161E-01  0.2779E+00  0.2149E-01
     -0.264  0.0000E+00  0.0000E+00  0.0000E+00
     -0.142  0.9500E-07  0.3001E-05  0.3115E-06
     -0.020  0.8197E-02  0.1493E+00  0.8664E-02
      0.102  0.3679E-01  0.4672E+00  0.2528E-01
      0.223  0.0000E+00  0.0000E+00  0.0000E+00
      0.345  0.0000E+00  0.0000E+00  0.0000E+00
      0.467  0.1841E-04  0.5887E-04  0.6931E-05
      0.589  0.1098E-13  0.1170E-02  0.4394E-04
      0.711  0.2171E-01  0.4172E-01  0.6538E-02
      0.832  0.9558E-01  0.2471E-01  0.1607E-01
      0.954  0.3804E-12  0.3419E+00  0.2085E-01
      1.076  0.1100E-15  0.6245E-05  0.5037E-06
      1.198  0.0000E+00  0.0000E+00  0.0000E+00
      1.319  0.2833E-01  0.3844E+00  0.4788E-01
      1.441  0.8897E-13  0.1680E+00  0.1540E-01
      1.563  0.5234E-01  0.2053E+00  0.3512E-01
      1.685  0.1201E-27  0.5436E-16  0.6593E-17
      1.807  0.9010E-12  0.3286E+00  0.3989E-01
      1.928  0.0000E+00  0.0000E+00  0.0000E+00
      2.050  0.0000E+00  0.0000E+00  0.0000E+00
      2.172  0.1678E-21  0.6844E-11  0.1128E-11
      2.294  0.8356E-11  0.4150E+00  0.6859E-01
      2.415  0.1214E-13  0.6016E-03  0.1448E-03
      2.537  0.7454E-11  0.1960E+00  0.4148E-01
      2.659  0.0000E+00  0.0000E+00  0.0000E+00
      2.781  0.0000E+00  0.0000E+00  0.0000E+00
      2.903  0.9078E-21  0.5048E-10  0.1477E-10
      3.024  0.2397E-11  0.1333E+00  0.3899E-01
      3.146  0.1449E-11  0.1593E+00  0.6013E-01
      3.268  0.0000E+00  0.0000E+00  0.0000E+00
      3.390  0.0000E+00  0.0000E+00  0.0000E+00
      3.512  0.2151E-12  0.1535E-01  0.9277E-02
      3.633  0.0000E+00  0.0000E+00  0.0000E+00
      3.755  0.0000E+00  0.0000E+00  0.0000E+00
      3.877  0.0000E+00  0.0000E+00  0.0000E+00
      3.999  0.0000E+00  0.0000E+00  0.0000E+00
      4.120  0.0000E+00  0.0000E+00  0.0000E+00
      4.242  0.0000E+00  0.0000E+00  0.0000E+00
      4.364  0.0000E+00  0.0000E+00  0.0000E+00
      4.486  0.0000E+00  0.0000E+00  0.0000E+00
      4.608  0.0000E+00  0.0000E+00  0.0000E+00
      4.729  0.0000E+00  0.0000E+00  0.0000E+00
      4.851  0.0000E+00  0.0000E+00  0.0000E+00
      4.973  0.3123E-01  0.1069E-10  0.9905E-13
      5.095  0.0000E+00  0.0000E+00  0.0000E+00
      5.216  0.3388E-15  0.5882E-16  0.2209E-16
      5.338  0.8974E-01  0.1558E-01  0.5852E-02
      5.460  0.7295E-11  0.1803E-11  0.3808E-12
      5.582  0.1718E+00  0.6615E-01  0.1673E-01
      5.704  0.5029E-05  0.5594E-05  0.1545E-05
      5.825  0.1221E-02  0.2679E-12  0.2732E-03
      5.947  0.1149E-02  0.3908E-03  0.2541E-04
      6.069  0.1706E+00  0.1709E+00  0.8116E-01
      6.191  0.0000E+00  0.0000E+00  0.0000E+00
      6.312  0.0000E+00  0.0000E+00  0.0000E+00
      6.434  0.8996E-05  0.7163E-05  0.3261E-05
      6.556  0.4047E-08  0.2035E-08  0.7293E-09
      6.678  0.0000E+00  0.0000E+00  0.0000E+00
      6.800  0.7006E+00  0.4030E+00  0.1119E+00
      6.921  0.4927E-01  0.2678E-01  0.2132E-01
      7.043  0.2209E+00  0.9810E-01  0.1094E-01
      7.165  0.0000E+00  0.0000E+00  0.0000E+00
      7.287  0.0000E+00  0.0000E+00  0.0000E+00
      7.408  0.1107E-08  0.1841E-08  0.5900E-10
      7.530  0.7287E-09  0.1167E+00  0.5208E-01
      7.652  0.1952E+00  0.1378E+00  0.8376E-01
      7.774  0.2897E+00  0.1537E+00  0.9854E-01
      7.896  0.0000E+00  0.0000E+00  0.0000E+00
      8.017  0.3115E+00  0.9245E-01  0.8427E-01
      8.139  0.9233E-08  0.1552E-07  0.1337E-08
      8.261  0.1832E+00  0.2350E+00  0.4197E-01
      8.383  0.0000E+00  0.0000E+00  0.0000E+00
      8.504  0.0000E+00  0.0000E+00  0.0000E+00
      8.626  0.4304E-04  0.1925E+00  0.1110E-01
      8.748  0.2930E-11  0.1366E-10  0.2734E-11
      8.870  0.1440E+00  0.4476E+00  0.1094E+00
      8.992  0.1509E-09  0.4530E+00  0.5370E-01
      9.113  0.9980E-01  0.6999E+00  0.1556E+00
      9.235  0.0000E+00  0.0000E+00  0.0000E+00
      9.357  0.3525E-09  0.5549E-07  0.1720E-07
      9.479  0.0000E+00  0.0000E+00  0.0000E+00
      9.600  0.0000E+00  0.0000E+00  0.0000E+00
      9.722  0.2080E-09  0.4514E+00  0.5435E-01
      9.844  0.0000E+00  0.0000E+00  0.0000E+00
      9.966  0.1501E-03  0.2004E-01  0.8712E-02
     10.088  0.2135E-01  0.1366E+00  0.3368E-01
     10.209  0.1059E-07  0.4066E+00  0.1063E+00
     10.331  0.2445E-15  0.2710E-16  0.4779E-16
     10.453  0.1223E+00  0.1356E-01  0.2391E-01
     10.575  0.2870E-08  0.5071E+00  0.8631E-01
     10.696  0.3609E-03  0.4162E-03  0.1305E-03
     10.818  0.0000E+00  0.0000E+00  0.0000E+00
     10.940  0.0000E+00  0.0000E+00  0.0000E+00
     11.062  0.0000E+00  0.0000E+00  0.0000E+00
     11.184  0.0000E+00  0.0000E+00  0.0000E+00
     11.305  0.0000E+00  0.0000E+00  0.0000E+00
     11.427  0.0000E+00  0.0000E+00  0.0000E+00
     11.549  0.4180E-01  0.2843E+00  0.9579E-01
     11.671  0.6210E-01  0.3587E+00  0.9614E-01
     11.792  0.1897E-01  0.2967E+00  0.5575E-01
     11.914  0.1208E-02  0.1845E+00  0.3807E-01
     12.036  0.1182E-12  0.1858E-13  0.1487E-13
     12.158  0.5052E-01  0.9841E-01  0.7847E-01
     12.280  0.1022E+00  0.6876E+00  0.1031E+00
     12.401  0.1298E-08  0.2034E-02  0.1156E+00
     12.523  0.0000E+00  0.0000E+00  0.0000E+00
     12.645  0.5116E-10  0.6140E-01  0.9232E-02
     12.767  0.0000E+00  0.0000E+00  0.0000E+00
     12.889  0.3694E-15  0.1183E-06  0.2614E-07
     13.010  0.0000E+00  0.0000E+00  0.0000E+00
     13.132  0.1327E-06  0.2585E-04  0.1311E-04
     13.254  0.7919E-01  0.3150E-01  0.1386E-01
     13.376  0.4864E-03  0.1533E-02  0.9365E-03
     13.497  0.8518E-01  0.9974E-01  0.2032E+00
     13.619  0.0000E+00  0.0000E+00  0.0000E+00
     13.741  0.0000E+00  0.0000E+00  0.0000E+00
     13.863  0.0000E+00  0.0000E+00  0.0000E+00
     13.985  0.5182E-01  0.3296E-01  0.1346E+00
     14.106  0.1629E-10  0.8237E-02  0.1705E-01
     14.228  0.1998E-04  0.8088E-01  0.1354E+00
     14.350  0.2010E-10  0.1937E-09  0.1088E-09
     14.472  0.2029E-01  0.3052E+00  0.1716E+00
     14.593  0.8930E-03  0.6962E-02  0.2613E-02
     14.715  0.0000E+00  0.0000E+00  0.0000E+00
     14.837  0.0000E+00  0.0000E+00  0.0000E+00
     14.959  0.7717E-24  0.9174E-17  0.7964E-18
     15.081  0.1340E-02  0.1654E+00  0.7165E-01
     15.202  0.0000E+00  0.0000E+00  0.0000E+00
     15.324  0.1204E+00  0.1708E+00  0.8079E-02
     15.446  0.6256E-01  0.2491E+00  0.1010E+00
     15.568  0.0000E+00  0.0000E+00  0.0000E+00
     15.689  0.0000E+00  0.0000E+00  0.0000E+00
     15.811  0.2898E-01  0.5048E+00  0.1634E+00
     15.933  0.0000E+00  0.0000E+00  0.0000E+00
     16.055  0.0000E+00  0.0000E+00  0.0000E+00
     16.177  0.7716E-12  0.6482E-12  0.4026E-12
     16.298  0.1341E+00  0.1126E+00  0.6995E-01
     16.420  0.8391E-01  0.1470E+00  0.1180E+00
     16.542  0.5960E-05  0.1922E-01  0.4148E-02
     16.664  0.0000E+00  0.0000E+00  0.0000E+00
     16.785  0.0000E+00  0.0000E+00  0.0000E+00
     16.907  0.5940E-02  0.9954E-01  0.1882E+00
     17.029  0.8143E-04  0.3032E+00  0.4687E-01
     17.151  0.0000E+00  0.0000E+00  0.0000E+00
     17.273  0.0000E+00  0.0000E+00  0.0000E+00
     17.394  0.0000E+00  0.0000E+00  0.0000E+00
     17.516  0.1247E-02  0.1899E+00  0.4417E-01
     17.638  0.0000E+00  0.0000E+00  0.0000E+00
     17.760  0.2275E-01  0.6290E+00  0.6596E-01
     17.881  0.2494E-01  0.1610E+00  0.1394E-02
     18.003  0.7897E-01  0.2894E+00  0.1096E+00
     18.125  0.4706E-02  0.2876E-01  0.3333E-01
     18.247  0.0000E+00  0.0000E+00  0.0000E+00
     18.369  0.0000E+00  0.0000E+00  0.0000E+00
     18.490  0.0000E+00  0.0000E+00  0.0000E+00
     18.612  0.0000E+00  0.0000E+00  0.0000E+00
     18.734  0.0000E+00  0.0000E+00  0.0000E+00
     18.856  0.0000E+00  0.0000E+00  0.0000E+00
     18.977  0.4957E-16  0.1985E-15  0.4019E-17
     19.099  0.2880E-01  0.1154E+00  0.2335E-02
     19.221  0.0000E+00  0.0000E+00  0.0000E+00
     19.343  0.0000E+00  0.0000E+00  0.0000E+00
     19.465  0.0000E+00  0.0000E+00  0.0000E+00
     19.586  0.0000E+00  0.0000E+00  0.0000E+00
     19.708  0.0000E+00  0.0000E+00  0.0000E+00
     19.830  0.0000E+00  0.0000E+00  0.0000E+00
     19.952  0.0000E+00  0.0000E+00  0.0000E+00
     20.073  0.0000E+00  0.0000E+00  0.0000E+00
     20.195  0.0000E+00  0.0000E+00  0.0000E+00
     20.317  0.0000E+00  0.0000E+00  0.0000E+00
     20.439  0.0000E+00  0.0000E+00  0.0000E+00
     20.561  0.0000E+00  0.0000E+00  0.0000E+00
     20.682  0.0000E+00  0.0000E+00  0.0000E+00
     20.804  0.0000E+00  0.0000E+00  0.0000E+00
     20.926  0.0000E+00  0.0000E+00  0.0000E+00
     20.92593549    -15.60783796  301      3.64850513      1.00000000
    -15.608  0.0000E+00  0.0000E+00  0.0000E+00
    -15.486  0.0000E+00  0.0000E+00  0.0000E+00
    -15.364  0.0000E+00  0.0000E+00  0.0000E+00
    -15.243  0.0000E+00  0.0000E+00  0.0000E+00
    -15.121  0.0000E+00  0.0000E+00  0.0000E+00
    -14.999  0.0000E+00  0.0000E+00  0.0000E+00
    -14.877  0.0000E+00  0.0000E+00  0.0000E+00
    -14.755  0.0000E+00  0.0000E+00  0.0000E+00
    -14.634  0.0000E+00  0.0000E+00  0.0000E+00
    -14.512  0.0000E+00  0.0000E+00  0.0000E+00
    -14.390  0.0000E+00  0.0000E+00  0.0000E+00
    -14.268  0.0000E+00  0.0000E+00  0.0000E+00
    -14.146  0.0000E+00  0.0000E+00  0.0000E+00
    -14.025  0.0000E+00  0.0000E+00  0.0000E+00
    -13.903  0.2048E+00  0.4350E-02  0.1208E-02
    -13.781  0.1199E-02  0.6343E-01  0.1556E-01
    -13.659  0.0000E+00  0.0000E+00  0.0000E+00
    -13.538  0.0000E+00  0.0000E+00  0.0000E+00
    -13.416  0.0000E+00  0.0000E+00  0.0000E+00
    -13.294  0.0000E+00  0.0000E+00  0.0000E+00
    -13.172  0.0000E+00  0.0000E+00  0.0000E+00
    -13.050  0.0000E+00  0.0000E+00  0.0000E+00
    -12.929  0.0000E+00  0.0000E+00  0.0000E+00
    -12.807  0.0000E+00  0.0000E+00  0.0000E+00
    -12.685  0.0000E+00  0.0000E+00  0.0000E+00
    -12.563  0.0000E+00  0.0000E+00  0.0000E+00
    -12.442  0.0000E+00  0.0000E+00  0.0000E+00
    -12.320  0.0000E+00  0.0000E+00  0.0000E+00
    -12.198  0.0000E+00  0.0000E+00  0.0000E+00
    -12.076  0.0000E+00  0.0000E+00  0.0000E+00
    -11.954  0.0000E+00  0.0000E+00  0.0000E+00
    -11.833  0.0000E+00  0.0000E+00  0.0000E+00
    -11.711  0.0000E+00  0.0000E+00  0.0000E+00
    -11.589  0.0000E+00  0.0000E+00  0.0000E+00
    -11.467  0.0000E+00  0.0000E+00  0.0000E+00
    -11.346  0.0000E+00  0.0000E+00  0.0000E+00
    -11.224  0.0000E+00  0.0000E+00  0.0000E+00
    -11.102  0.0000E+00  0.0000E+00  0.0000E+00
    -10.980  0.0000E+00  0.0000E+00  0.0000E+00
    -10.858  0.0000E+00  0.0000E+00  0.0000E+00
    -10.737  0.0000E+00  0.0000E+00  0.0000E+00
    -10.615  0.0000E+00  0.0000E+00  0.0000E+00
    -10.493  0.7353E-08  0.2088E-19  0.7440E-20
    -10.371  0.0000E+00  0.0000E+00  0.0000E+00
    -10.250  0.0000E+00  0.0000E+00  0.0000E+00
    -10.128  0.5014E-02  0.3061E-04  0.1012E-05
    -10.006  0.2041E-01  0.1676E-03  0.4904E-05
     -9.884  0.0000E+00  0.0000E+00  0.0000E+00
     -9.762  0.0000E+00  0.0000E+00  0.0000E+00
     -9.641  0.0000E+00  0.0000E+00  0.0000E+00
     -9.519  0.4121E+00  0.5221E-02  0.2149E-03
     -9.397  0.0000E+00  0.0000E+00  0.0000E+00
     -9.275  0.8518E-01  0.1270E-02  0.5734E-04
     -9.154  0.2857E+00  0.3492E-02  0.2694E-03
     -9.032  0.0000E+00  0.0000E+00  0.0000E+00
     -8.910  0.0000E+00  0.0000E+00  0.0000E+00
     -8.788  0.3161E-05  0.5402E-07  0.2341E-08
     -8.666  0.9098E-04  0.1020E-05  0.9770E-07
     -8.545  0.2419E-01  0.7696E-04  0.4033E-04
     -8.423  0.9353E+00  0.1268E-01  0.7613E-03
     -8.301  0.0000E+00  0.0000E+00  0.0000E+00
     -8.179  0.0000E+00  0.0000E+00  0.0000E+00
     -8.058  0.5688E-16  0.4174E-18  0.3721E-19
     -7.936  0.1290E+01  0.8590E-02  0.8290E-03
     -7.814  0.0000E+00  0.0000E+00  0.0000E+00
     -7.692  0.1383E+00  0.6281E-08  0.7792E-04
     -7.570  0.0000E+00  0.0000E+00  0.0000E+00
     -7.449  0.0000E+00  0.0000E+00  0.0000E+00
     -7.327  0.0000E+00  0.0000E+00  0.0000E+00
     -7.205  0.0000E+00  0.0000E+00  0.0000E+00
     -7.083  0.0000E+00  0.0000E+00  0.0000E+00
     -6.962  0.0000E+00  0.0000E+00  0.0000E+00
     -6.840  0.0000E+00  0.0000E+00  0.0000E+00
     -6.718  0.0000E+00  0.0000E+00  0.0000E+00
     -6.596  0.0000E+00  0.0000E+00  0.0000E+00
     -6.474  0.0000E+00  0.0000E+00  0.0000E+00
     -6.353  0.0000E+00  0.0000E+00  0.0000E+00
     -6.231  0.0000E+00  0.0000E+00  0.0000E+00
     -6.109  0.0000E+00  0.0000E+00  0.0000E+00
     -5.987  0.0000E+00  0.0000E+00  0.0000E+00
     -5.865  0.0000E+00  0.0000E+00  0.0000E+00
     -5.744  0.0000E+00  0.0000E+00  0.0000E+00
     -5.622  0.0000E+00  0.0000E+00  0.0000E+00
     -5.500  0.0000E+00  0.0000E+00  0.0000E+00
     -5.378  0.0000E+00  0.0000E+00  0.0000E+00
     -5.257  0.0000E+00  0.0000E+00  0.0000E+00
     -5.135  0.0000E+00  0.0000E+00  0.0000E+00
     -5.013  0.0000E+00  0.0000E+00  0.0000E+00
     -4.891  0.0000E+00  0.0000E+00  0.0000E+00
     -4.769  0.0000E+00  0.0000E+00  0.0000E+00