    2    2    1    1
  0.2258839E+02  0.3997699E-09  0.3997699E-09  0.3997699E-09  0.5000000E-15
  1.000000000000000E-004
  CAR 
 Name                                    
     18    597     16
 
  0.0000000E+00  0.0000000E+00  0.0000000E+00  0.4629630E-02
    1      -13.863991
    2      -13.863991
    3      -13.863991
    4      -13.784705
    5      -13.784705
    6      -10.457420
    7        3.508632
    8        3.508636
    9        3.508636
   10        4.922975
   11        8.045721
   12        8.045731
   13        8.045732
   14       12.084087
   15       14.602901
   16       14.614463
 
  0.1666667E+00  0.0000000E+00  0.0000000E+00  0.3703704E-01
    1      -13.877944
    2      -13.858626
    3      -13.858626
    4      -13.784932
    5      -13.784931
    6      -10.113080
    7        0.720755
    8        3.107796
    9        3.107799
   10        5.964462
   11        8.627290
   12        8.627298
   13        9.051909
   14       13.461126
   15       13.461669
   16       13.484345
 
  0.3333333E+00  0.0000000E+00  0.0000000E+00  0.3703704E-01
    1      -13.904489
    2      -13.849439
    3      -13.849439
    4      -13.783722
    5      -13.783723
    6       -9.213353
    7       -2.282391
    8        2.515530
    9        2.515530
   10        5.505874
   11        9.049306
   12        9.049314
   13       11.777711
   14       13.243907
   15       14.156772
   16       14.156848
 
  0.5000000E+00  0.0000000E+00  0.0000000E+00  0.1851852E-01
    1      -13.917219
    2      -13.845843
    3      -13.845843
    4      -13.782092
    5      -13.782092
    6       -8.537366
    7       -3.698146
    8        2.278712
    9        2.278710
   10        5.271389
   11        8.964941
   12        8.964948
   13       12.159171
   14       15.093110
   15       16.546408
   16       16.551841
 
  0.1666667E+00  0.1666667E+00  0.0000000E+00  0.2777778E-01
    1      -13.887747
    2      -13.853285
    3      -13.853285
    4      -13.789219
    5      -13.781976
    6       -9.997007
    7        0.765363
    8        2.434077
    9        2.434078
   10        6.795836
   11        7.447127
   12        9.689282
   13        9.689288
   14       11.820062
   15       14.252759
   16       15.075507
 
  0.3333333E+00  0.1666667E+00  0.0000000E+00  0.1111111E+00
    1      -13.908955
    2      -13.845211
    3      -13.843167
    4      -13.791784
    5      -13.780000
    6       -9.266282
    7       -1.544830
    8        1.558217
    9        1.824076
   10        6.748752
   11        8.176894
   12        9.975933
   13       10.529615
   14       13.392672
   15       15.335768
   16       15.468698
 
  0.5000000E+00  0.1666667E+00  0.0000000E+00  0.1111111E+00
    1      -13.921780
    2      -13.842064
    3      -13.838750
    4      -13.788452
    5      -13.780692
    6       -8.391521
    7       -3.407647
    8        0.718070
    9        1.742639
   10        6.595402
   11        8.811975
   12       10.186973
   13       11.522977
   14       14.392207
   15       16.224531
   16       16.560379
 
 -0.3333333E+00  0.1666667E+00  0.0000000E+00  0.1111111E+00
    1      -13.916340
    2      -13.843276
    3      -13.842516
    4      -13.785336
    5      -13.784095
    6       -8.640100
    7       -2.938004
    8        0.491889
    9        2.218535
   10        6.787089
   11        9.049253
   12        9.725715
   13       11.666726
   14       13.503357
   15       14.608024
   16       16.378666
 
 -0.1666667E+00  0.1666667E+00  0.0000000E+00  0.5555556E-01
    1      -13.896375
    2      -13.852497
    3      -13.849165
    4      -13.787390
    5      -13.783104
    6       -9.573530
    7       -0.845867
    8        1.291624
    9        2.946120
   10        6.970822
   11        8.793295
   12        8.969156
   13       10.059685
   14       12.374986
   15       14.440939
   16       15.272222
 
  0.3333333E+00  0.3333333E+00  0.0000000E+00  0.2777778E-01
    1      -13.928845
    2      -13.831205
    3      -13.831205
    4      -13.800412
    5      -13.776477
    6       -8.758597
    7       -2.225578
    8        1.103927
    9        1.103930
   10        5.729822
   11        6.883872
   12       12.650372
   13       12.650376
   14       13.257045
   15       16.460975
   16       17.831847
 
  0.5000000E+00  0.3333333E+00  0.0000000E+00  0.1111111E+00
    1      -13.937526
    2      -13.828630
    3      -13.825619
    4      -13.800420
    5      -13.776638
    6       -7.998463
    7       -3.408210
    8       -0.019819
    9        0.933408
   10        6.021842
   11        7.610358
   12       12.222331
   13       12.923985
   14       15.384640
   15       16.922942
   16       17.700156
 
 -0.3333333E+00  0.3333333E+00  0.0000000E+00  0.5555556E-01
    1      -13.929953
    2      -13.835863
    3      -13.830403
    4      -13.792299
    5      -13.782032
    6       -7.929659
    7       -3.458929
    8       -0.786291
    9        1.397308
   10        6.460798
   11       10.386676
   12       11.738075
   13       12.087357
   14       12.216060
   15       14.113721
   16       19.033151
 
  0.5000000E+00  0.5000000E+00  0.0000000E+00  0.1388889E-01
    1      -13.947212
    2      -13.819842
    3      -13.819841
    4      -13.806667
    5      -13.773718
    6       -7.716113
    7       -3.872976
    8        0.604449
    9        0.604450
   10        5.577460
   11        5.839116
   12       15.017354
   13       15.017416
   14       15.753921
   15       17.959489
   16       17.991009
 
  0.5000000E+00  0.3333333E+00  0.1666667E+00  0.1111111E+00
    1      -13.924269
    2      -13.839194
    3      -13.832997
    4      -13.793938
    5      -13.779755
    6       -8.483785
    7       -2.730028
    8        0.057245
    9        1.314506
   10        7.727835
   11        8.252113
   12        9.392865
   13       12.438142
   14       13.945327
   15       15.793990
   16       17.934144
 
 -0.3333333E+00  0.3333333E+00  0.1666667E+00  0.1111111E+00
    1      -13.929619
    2      -13.838593
    3      -13.828354
    4      -13.792185
    5      -13.781806
    6       -7.928591
    7       -3.503648
    8       -0.435140
    9        0.868863
   10        7.965557
   11        8.644258
   12       10.716559
   13       11.916439
   14       13.158747
   15       16.845461
   16       17.516983
 
 -0.3333333E+00  0.5000000E+00  0.1666667E+00  0.5555556E-01
    1      -13.937970
    2      -13.831664
    3      -13.822297
    4      -13.798504
    5      -13.778636
    6       -7.670679
    7       -3.710601
    8       -0.112948
    9        0.063445
   10        7.492683
   11        7.777333
   12       11.655959
   13       11.940595
   14       15.837423
   15       16.971678
   16       18.126469
 
  0.0000000E+00  0.0000000E+00  0.0000000E+00  0.0000000E+00
    1      -13.863991
    2      -13.863991
    3      -13.863991
    4      -13.784705
    5      -13.784705
    6      -10.457420
    7        3.508632
    8        3.508635
    9        3.508636
   10        4.922975
   11        8.045721
   12        8.045730
   13        8.045731
   14       12.084066
   15       14.601625
   16       14.604256
 
  0.5000000E-02  0.0000000E+00  0.5000000E-02  0.0000000E+00
    1      -13.864020
    2      -13.863981
    3      -13.863981
    4      -13.784709
    5      -13.784704
    6      -10.457000
    7        3.507220
    8        3.507222
    9        3.527913
   10        4.930536
   11        8.044081
   12        8.047659
   13        8.047665
   14       12.086639
   15       14.592313
   16       14.602260
 
  0.1000000E-01  0.0000000E+00  0.1000000E-01  0.0000000E+00
    1      -13.864096
    2      -13.863955
    3      -13.863955
    4      -13.784723
    5      -13.784695
    6      -10.455734
    7        3.479336
    8        3.529952
    9        3.529954
   10        4.952731
   11        8.039155
   12        8.053453
   13        8.053460
   14       12.094366
   15       14.566633
   16       14.606060
 
  0.1500000E-01  0.0000000E+00  0.1500000E-01  0.0000000E+00
    1      -13.864221
    2      -13.863905
    3      -13.863905
    4      -13.784745
    5      -13.784683
    6      -10.453622
    7        3.442679
    8        3.522091
    9        3.522091
   10        4.988237
   11        8.030992
   12        8.063084
   13        8.063090
   14       12.107135
   15       14.525246
   16       14.606643
 
  0.2000000E-01  0.0000000E+00  0.2000000E-01  0.0000000E+00
    1      -13.864396
    2      -13.863835
    3      -13.863835
    4      -13.784776
    5      -13.784665
    6      -10.450664
    7        3.395117
    8        3.492268
    9        3.492273
   10        5.035234
   11        8.019662
   12        8.076508
   13        8.076514
   14       12.124922
   15       14.464312
   16       14.608498
 
  0.2500000E-01  0.0000000E+00  0.2500000E-01  0.0000000E+00
    1      -13.864615
    2      -13.863739
    3      -13.863739
    4      -13.784808
    5      -13.784639
    6      -10.446860
    7        3.340325
    8        3.473983
    9        3.473985
   10        5.089318
   11        8.005255
   12        8.093392
   13        8.093398
   14       12.147625
   15       14.395549
   16       14.612427
 
  0.3000000E-01  0.0000000E+00  0.3000000E-01  0.0000000E+00
    1      -13.864886
    2      -13.863627
    3      -13.863628
    4      -13.784851
    5      -13.784611
    6      -10.442213
    7        3.275837
    8        3.458992
    9        3.458990
   10        5.152850
   11        7.987897
   12        8.114107
   13        8.114113
   14       12.175103
   15       14.316896
   16       14.617727
 
  0.3500000E-01  0.0000000E+00  0.3500000E-01  0.0000000E+00
    1      -13.865208
    2      -13.863493
    3      -13.863493
    4      -13.784901
    5      -13.784576
    6      -10.436721
    7        3.204972
    8        3.441467
    9        3.441468
   10        5.222528
   11        7.967724
   12        8.138392
   13        8.138398
   14       12.207221
   15       14.229355
   16       14.622604
 
  0.4000000E-01  0.0000000E+00  0.4000000E-01  0.0000000E+00
    1      -13.865575
    2      -13.863340
    3      -13.863339
    4      -13.784960
    5      -13.784540
    6      -10.430387
    7        3.129001
    8        3.421499
    9        3.421497
   10        5.297033
   11        7.944888
   12        8.166153
   13        8.166160
   14       12.243800
   15       14.136923
   16       14.629429
 
  0.4500000E-01  0.0000000E+00  0.4500000E-01  0.0000000E+00
    1      -13.865990
    2      -13.863164
    3      -13.863164
    4      -13.785029
    5      -13.784495
    6      -10.423212
    7        3.048954
    8        3.399190
    9        3.399188
   10        5.375294
   11        7.919558
   12        8.197293
   13        8.197300
   14       12.284643
   15       14.039685
   16       14.636324
 
  0.5000000E-01  0.0000000E+00  0.5000000E-01  0.0000000E+00
    1      -13.866451
    2      -13.862968
    3      -13.862968
    4      -13.785104
    5      -13.784445
    6      -10.415197
    7        2.965650
    8        3.374645
    9        3.374643
   10        5.456452
   11        7.891915
   12        8.231703
   13        8.231709
   14       12.329540
   15       13.940372
   16       14.644944
 
  0.5500000E-01  0.0000000E+00  0.5500000E-01  0.0000000E+00
    1      -13.866958
    2      -13.862752
    3      -13.862751
    4      -13.785186
    5      -13.784389
    6      -10.406345
    7        2.879729
    8        3.347974
    9        3.347977
   10        5.539803
   11        7.862145
   12        8.269268
   13        8.269274
   14       12.378244
   15       13.838597
   16       14.653366
 
  0.6000000E-01  0.0000000E+00  0.6000000E-01  0.0000000E+00
    1      -13.867509
    2      -13.862514
    3      -13.862513
    4      -13.785273
    5      -13.784329
    6      -10.396656
    7        2.791701
    8        3.319297
    9        3.319299
   10        5.624773
   11        7.830440
   12        8.309870
   13        8.309877
   14       12.430516
   15       13.736783
   16       14.663428
 
  0.6500000E-01  0.0000000E+00  0.6500000E-01  0.0000000E+00
    1      -13.868107
    2      -13.862258
    3      -13.862258
    4      -13.785372
    5      -13.784264
    6      -10.386135
    7        2.701967
    8        3.288733
    9        3.288734
   10        5.710875
   11        7.796996
   12        8.353386
   13        8.353392
   14       12.485888
   15       13.632839
   16       14.674049
 
  0.7000000E-01  0.0000000E+00  0.7000000E-01  0.0000000E+00
    1      -13.868745
    2      -13.861980
    3      -13.861979
    4      -13.785478
    5      -13.784193
    6      -10.374780
    7        2.610853
    8        3.256402
    9        3.256402
   10        5.797707
   11        7.762022
   12        8.399702
   13        8.399708
   14       12.544030
   15       13.530619
   16       14.685434
 
  0.7500000E-01  0.0000000E+00  0.7500000E-01  0.0000000E+00
    1      -13.869427
    2      -13.861685
    3      -13.861685
    4      -13.785594
    5      -13.784118
    6      -10.362600
    7        2.518615
    8        3.222420
    9        3.222418
   10        5.884892
   11        7.725713
   12        8.448681
   13        8.448688
   14       12.604296
   15       13.428868
   16       14.707741
 
  0.8000000E-01  0.0000000E+00  0.8000000E-01  0.0000000E+00
    1      -13.870147
    2      -13.861372
    3      -13.861372
    4      -13.785718
    5      -13.784037
    6      -10.349597
    7        2.425463
    8        3.186911
    9        3.186912
   10        5.972101
   11        7.688286
   12        8.500207
   13        8.500213
   14       12.665272
   15       13.330841
   16       14.711756
 
  0.8500000E-01  0.0000000E+00  0.8500000E-01  0.0000000E+00
    1      -13.870906
    2      -13.861039
    3      -13.861039
    4      -13.785851
    5      -13.783952
    6      -10.335775
    7        2.331566
    8        3.149991
    9        3.149992
   10        6.059013
   11        7.649964
   12        8.554161
   13        8.554167
   14       12.724796
   15       13.237263
   16       14.725284
 
  0.9000000E-01  0.0000000E+00  0.9000000E-01  0.0000000E+00
    1      -13.871704
    2      -13.860689
    3      -13.860689
    4      -13.785993
    5      -13.783862
    6      -10.321134
    7        2.237067
    8        3.111779
    9        3.111776
   10        6.145307
   11        7.610981
   12        8.610424
   13        8.610430
   14       12.776735
   15       13.155571
   16       14.741809
 
  0.9500000E-01  0.0000000E+00  0.9500000E-01  0.0000000E+00
    1      -13.872538
    2      -13.860318
    3      -13.860317
    4      -13.786144
    5      -13.783766
    6      -10.305675
    7        2.142083
    8        3.072379
    9        3.072382
   10        6.230649
   11        7.571599
   12        8.668886
   13        8.668892
   14       12.805893
   15       13.100719
   16       14.755949
 
  0.9999999E-01  0.0000000E+00  0.9999999E-01  0.0000000E+00
    1      -13.873408
    2      -13.859932
    3      -13.859931
    4      -13.786303
    5      -13.783667
    6      -10.289406
    7        2.046709
    8        3.031907
    9        3.031909
   10        6.314654
   11        7.532106
   12        8.729425
   13        8.729431
   14       12.788884
   15       13.096200
   16       14.772756
 
  0.1050000E+00  0.0000000E+00  0.1050000E+00  0.0000000E+00
    1      -13.874312
    2      -13.859528
    3      -13.859528
    4      -13.786471
    5      -13.783564
    6      -10.272328
    7        1.951030
    8        2.990464
    9        2.990464
   10        6.396889
   11        7.492862
   12        8.791938
   13        8.791945
   14       12.729554
   15       13.138182
   16       14.793599
 
  0.1100000E+00  0.0000000E+00  0.1100000E+00  0.0000000E+00
    1      -13.875249
    2      -13.859108
    3      -13.859108
    4      -13.786646
    5      -13.783456
    6      -10.254444
    7        1.855115
    8        2.948149
    9        2.948151
   10        6.476811
   11        7.454316
   12        8.856323
   13        8.856329
   14       12.651469
   15       13.203485
   16       14.808443
 
  0.1150000E+00  0.0000000E+00  0.1150000E+00  0.0000000E+00
    1      -13.876219
    2      -13.858671
    3      -13.858671
    4      -13.786830
    5      -13.783344
    6      -10.235761
    7        1.759020
    8        2.905059
    9        2.905060
   10        6.553717
   11        7.417071
   12        8.922479
   13        8.922485
   14       12.567204
   15       13.279575
   16       14.827676
 
  0.1200000E+00  0.0000000E+00  0.1200000E+00  0.0000000E+00
    1      -13.877218
    2      -13.858218
    3      -13.858218
    4      -13.787023
    5      -13.783229
    6      -10.216280
    7        1.662801
    8        2.861284
    9        2.861287
   10        6.626641
   11        7.381976
   12        8.990311
   13        8.990318
   14       12.481649
   15       13.361698
   16       14.847996
 
  0.1250000E+00  0.0000000E+00  0.1250000E+00  0.0000000E+00
    1      -13.878247
    2      -13.857749
    3      -13.857749
    4      -13.787224
    5      -13.783109
    6      -10.196008
    7        1.566503
    8        2.816915
    9        2.816914
   10        6.694211
   11        7.350272
   12        9.059730
   13        9.059735
   14       12.396958
   15       13.447794
   16       14.868651
 
  0.1300000E+00  0.0000000E+00  0.1300000E+00  0.0000000E+00
    1      -13.879303
    2      -13.857266
    3      -13.857265
    4      -13.787434
    5      -13.782986
    6      -10.174949
    7        1.470166
    8        2.772031
    9        2.772032
   10        6.754439
   11        7.323798
   12        9.130646
   13        9.130652
   14       12.314269
   15       13.536994
   16       14.890333
 
  0.1350000E+00  0.0000000E+00  0.1350000E+00  0.0000000E+00
    1      -13.880385
    2      -13.856767
    3      -13.856766
    4      -13.787652
    5      -13.782859
    6      -10.153108
    7        1.373826
    8        2.726713
    9        2.726713
   10        6.804552
   11        7.305164
   12        9.202980
   13        9.202986
   14       12.234311
   15       13.628738
   16       14.912991
 
  0.1400000E+00  0.0000000E+00  0.1400000E+00  0.0000000E+00
    1      -13.881491
    2      -13.856253
    3      -13.856253
    4      -13.787878
    5      -13.782728
    6      -10.130490
    7        1.277512
    8        2.681035
    9        2.681036
   10        6.841187
   11        7.297546
   12        9.276651
   13        9.276656
   14       12.157573
   15       13.722691
   16       14.936587
 
  0.1450000E+00  0.0000000E+00  0.1450000E+00  0.0000000E+00
    1      -13.882623
    2      -13.855731
    3      -13.855731
    4      -13.788120
    5      -13.782597
    6      -10.107103
    7        1.181229
    8        2.635025
    9        2.635028
   10        6.861547
   11        7.303550
   12        9.351627
   13        9.351632
   14       12.084550
   15       13.818510
   16       14.960570
 
  0.1500000E+00  0.0000000E+00  0.1500000E+00  0.0000000E+00
    1      -13.883774
    2      -13.855186
    3      -13.855187
    4      -13.788359
    5      -13.782458
    6      -10.082951
    7        1.085064
    8        2.588855
    9        2.588852
   10        6.865224
   11        7.323346
   12        9.427739
   13        9.427745
   14       12.015603
   15       13.916200
   16       14.985828
 
  0.1550000E+00  0.0000000E+00  0.1550000E+00  0.0000000E+00
    1      -13.884944
    2      -13.854630
    3      -13.854629
    4      -13.788606
    5      -13.782316
    6      -10.058040
    7        0.989001
    8        2.542514
    9        2.542516
   10        6.854741
   11        7.354192
   12        9.504985
   13        9.504991
   14       11.951118
   15       14.015438
   16       15.011708
 
  0.1600000E+00  0.0000000E+00  0.1600000E+00  0.0000000E+00
    1      -13.886134
    2      -13.854061
    3      -13.854061
    4      -13.788863
    5      -13.782172
    6      -10.032378
    7        0.893060
    8        2.496069
    9        2.496072
   10        6.833919
   11        7.392023
   12        9.583301
   13        9.583308
   14       11.891471
   15       14.116212
   16       15.038758
 
  0.1650000E+00  0.0000000E+00  0.1650000E+00  0.0000000E+00
    1      -13.887341
    2      -13.853481
    3      -13.853481
    4      -13.789129
    5      -13.782025
    6      -10.005973
    7        0.797261
    8        2.449578
    9        2.449576
   10        6.806173
   11        7.433170
   12        9.662627
   13        9.662631
   14       11.837004
   15       14.218389
   16       15.066111
 
  0.1700000E+00  0.0000000E+00  0.1700000E+00  0.0000000E+00
    1      -13.888565
    2      -13.852890
    3      -13.852890
    4      -13.789402
    5      -13.781876
    6       -9.978831
    7        0.701624
    8        2.403086
    9        2.403088
   10        6.773955
   11        7.474926
   12        9.742903
   13        9.742908
   14       11.788061
   15       14.322047
   16       15.096001
 
  0.1750000E+00  0.0000000E+00  0.1750000E+00  0.0000000E+00
    1      -13.889803
    2      -13.852289
    3      -13.852288
    4      -13.789684
    5      -13.781724
    6       -9.950958
    7        0.606165
    8        2.356651
    9        2.356652
   10        6.738884
   11        7.515424
   12        9.824079
   13        9.824085
   14       11.744966
   15       14.426588
   16       15.123774
 
  0.1800000E+00  0.0000000E+00  0.1800000E+00  0.0000000E+00
    1      -13.891054
    2      -13.851677
    3      -13.851678
    4      -13.789973
    5      -13.781570
    6       -9.922361
    7        0.510901
    8        2.310318
    9        2.310318
   10        6.702011
   11        7.553379
   12        9.906105
   13        9.906110
   14       11.708010
   15       14.532367
   16       15.153876
 
  0.1850000E+00  0.0000000E+00  0.1850000E+00  0.0000000E+00
    1      -13.892317
    2      -13.851058
    3      -13.851057
    4      -13.790269
    5      -13.781414
    6       -9.893049
    7        0.415849
    8        2.264130
    9        2.264131
   10        6.664028
   11        7.587884
   12        9.988929
   13        9.988936
   14       11.677469
   15       14.639228
   16       15.184840
 
  0.1900000E+00  0.0000000E+00  0.1900000E+00  0.0000000E+00
    1      -13.893588
    2      -13.850422
    3      -13.850422
    4      -13.790563
    5      -13.781253
    6       -9.863028
    7        0.321052
    8        2.218167
    9        2.218167
   10        6.625393
   11        7.618283
   12       10.072476
   13       10.072480
   14       11.653560
   15       14.747110
   16       15.216684
 
  0.1950000E+00  0.0000000E+00  0.1950000E+00  0.0000000E+00
    1      -13.894869
    2      -13.849781
    3      -13.849781
    4      -13.790868
    5      -13.781092
    6       -9.832310
    7        0.226482
    8        2.172411
    9        2.172413
   10        6.586449
   11        7.644110
   12       10.156758
   13       10.156762
   14       11.636505
   15       14.856232
   16       15.249677
 
  0.2000000E+00  0.0000000E+00  0.2000000E+00  0.0000000E+00
    1      -13.896158
    2      -13.849133
    3      -13.849132
    4      -13.791178
    5      -13.780929
    6       -9.800902
    7        0.132168
    8        2.126926
    9        2.126925
   10        6.547426
   11        7.665035
   12       10.241709
   13       10.241714
   14       11.626418
   15       14.965457
   16       15.282643
 
  0.2050000E+00  0.0000000E+00  0.2050000E+00  0.0000000E+00
    1      -13.897452
    2      -13.848478
    3      -13.848478
    4      -13.791495
    5      -13.780765
    6       -9.768815
    7        0.038126
    8        2.081742
    9        2.081742
   10        6.508497
   11        7.680840
   12       10.327287
   13       10.327292
   14       11.623368
   15       15.075590
   16       15.316930
 
  0.2100000E+00  0.0000000E+00  0.2100000E+00  0.0000000E+00
    1      -13.898751
    2      -13.847816
    3      -13.847815
    4      -13.791818
    5      -13.780598
    6       -9.736059
    7       -0.055628
    8        2.036894
    9        2.036897
   10        6.469800
   11        7.691416
   12       10.413461
   13       10.413465
   14       11.627364
   15       15.187010
   16       15.352023
 
  0.2150000E+00  0.0000000E+00  0.2150000E+00  0.0000000E+00
    1      -13.900054
    2      -13.847148
    3      -13.847148
    4      -13.792146
    5      -13.780431
    6       -9.702644
    7       -0.149078
    8        1.992416
    9        1.992419
   10        6.431438
   11        7.696740
   12       10.500192
   13       10.500198
   14       11.638357
   15       15.298147
   16       15.387820
 
  0.2200000E+00  0.0000000E+00  0.2200000E+00  0.0000000E+00
    1      -13.901358
    2      -13.846475
    3      -13.846475
    4      -13.792479
    5      -13.780262
    6       -9.668582
    7       -0.242209
    8        1.948339
    9        1.948337
   10        6.393498
   11        7.696874
   12       10.587453
   13       10.587459
   14       11.656224
   15       15.410090
   16       15.424497
 
  0.2250000E+00  0.0000000E+00  0.2250000E+00  0.0000000E+00
    1      -13.902663
    2      -13.845796
    3      -13.845796
    4      -13.792815
    5      -13.780092
    6       -9.633887
    7       -0.335007
    8        1.904684
    9        1.904685
   10        6.356048
   11        7.691949
   12       10.675209
   13       10.675215
   14       11.680774
   15       15.461954
   16       15.522556
 
  0.2300000E+00  0.0000000E+00  0.2300000E+00  0.0000000E+00
    1      -13.903968
    2      -13.845113
    3      -13.845114
    4      -13.793156
    5      -13.779921
    6       -9.598568
    7       -0.427454
    8        1.861483
    9        1.861486
   10        6.319148
   11        7.682160
   12       10.763432
   13       10.763438
   14       11.711775
   15       15.500224
   16       15.635259
 
  0.2350000E+00  0.0000000E+00  0.2350000E+00  0.0000000E+00
    1      -13.905270
    2      -13.844427
    3      -13.844427
    4      -13.793500
    5      -13.779749
    6       -9.562639
    7       -0.519536
    8        1.818761
    9        1.818764
   10        6.282845
   11        7.667752
   12       10.852096
   13       10.852099
   14       11.748953
   15       15.539299
   16       15.748290
 
  0.2400000E+00  0.0000000E+00  0.2400000E+00  0.0000000E+00
    1      -13.906569
    2      -13.843738
    3      -13.843738
    4      -13.793847
    5      -13.779577
    6       -9.526113
    7       -0.611235
    8        1.776543
    9        1.776543
   10        6.247181
   11        7.649009
   12       10.941166
   13       10.941174
   14       11.791980
   15       15.579628
   16       15.861717
 
  0.2450000E+00  0.0000000E+00  0.2450000E+00  0.0000000E+00
    1      -13.907864
    2      -13.843047
    3      -13.843046
    4      -13.794197
    5      -13.779405
    6       -9.489007
    7       -0.702533
    8        1.734849
    9        1.734849
   10        6.212195
   11        7.626242
   12       11.030625
   13       11.030631
   14       11.840537
   15       15.619849
   16       15.974681
 
  0.2500000E+00  0.0000000E+00  0.2500000E+00  0.0000000E+00
    1      -13.909158
    2      -13.842357
    3      -13.842357
    4      -13.794558
    5      -13.779239
    6       -9.451340
    7       -0.793416
    8        1.693691
    9        1.693693
   10        6.177913
   11        7.599759
   12       11.120441
   13       11.120442
   14       11.894240
   15       15.661282
   16       16.087834
 
  0.2550000E+00  0.0000000E+00  0.2550000E+00  0.0000000E+00
    1      -13.910434
    2      -13.841657
    3      -13.841657
    4      -13.794909
    5      -13.779061
    6       -9.413114
    7       -0.883853
    8        1.653112
    9        1.653115
   10        6.144381
   11        7.569940
   12       11.210618
   13       11.210623
   14       11.952774
   15       15.703560
   16       16.200992
 
  0.2600000E+00  0.0000000E+00  0.2600000E+00  0.0000000E+00
    1      -13.911709
    2      -13.840964
    3      -13.840964
    4      -13.795266
    5      -13.778889
    6       -9.374358
    7       -0.973839
    8        1.613120
    9        1.613119
   10        6.111605
   11        7.537097
   12       11.301088
   13       11.301093
   14       12.015729
   15       15.746610
   16       16.313710
 
  0.2650000E+00  0.0000000E+00  0.2650000E+00  0.0000000E+00
    1      -13.912975
    2      -13.840271
    3      -13.840271
    4      -13.795623
    5      -13.778717
    6       -9.335086
    7       -1.063350
    8        1.573731
    9        1.573730
   10        6.079615
   11        7.501560
   12       11.391850
   13       11.391856
   14       12.082778
   15       15.790349
   16       16.425848
 
  0.2700000E+00  0.0000000E+00  0.2700000E+00  0.0000000E+00
    1      -13.914230
    2      -13.839578
    3      -13.839578
    4      -13.795981
    5      -13.778545
    6       -9.295315
    7       -1.152362
    8        1.534965
    9        1.534962
   10        6.048433
   11        7.463648
   12       11.482884
   13       11.482888
   14       12.153573
   15       15.834892
   16       16.537657
 
  0.2750000E+00  0.0000000E+00  0.2750000E+00  0.0000000E+00
    1      -13.915475
    2      -13.838887
    3      -13.838887
    4      -13.796339
    5      -13.778373
    6       -9.255066
    7       -1.240858
    8        1.496837
    9        1.496834
   10        6.018077
   11        7.423664
   12       11.574166