       N       E                     dE             d eps       ncg     rms          ort
DAV:   1     0.778422106621E+03    0.77842E+03   -0.34782E+04  9552   0.636E+03
DAV:   2     0.123484935671E+03   -0.65494E+03   -0.60554E+03  9552   0.157E+03
DAV:   3     0.366343239926E+02   -0.86851E+02   -0.81086E+02  9552   0.204E+02
DAV:   4     0.313497427091E+02   -0.52846E+01   -0.52302E+01  9552   0.530E+01
DAV:   5     0.312659428212E+02   -0.83800E-01   -0.83779E-01  9552   0.687E+00
SDA:   6    -0.954383377265E+01   -0.40810E+02   -0.83779E-01  9552   0.557E+00 0.000E+00
CGA:   7    -0.972114818098E+01   -0.17731E+00   -0.17702E+00  9552   0.156E+00 0.169E-02
CGA:   8    -0.980797440165E+01   -0.86826E-01   -0.84449E-01  9552   0.105E+00 0.799E-02
CGA:   9    -0.983425637862E+01   -0.26282E-01   -0.26268E-01  9552   0.297E-01 0.535E-03
CGA:  10    -0.984309879548E+01   -0.88424E-02   -0.88298E-02  9552   0.817E-02 0.129E-03
CGA:  11    -0.984494878226E+01   -0.18500E-02   -0.18500E-02  9552   0.185E-02 0.186E-05
CGA:  12    -0.984547242696E+01   -0.52364E-03   -0.52351E-03  9552   0.448E-03 0.147E-05
CGA:  13    -0.984560183593E+01   -0.12941E-03   -0.12943E-03  9552   0.224E-03-0.581E-06
CGA:  14    -0.984566630632E+01   -0.64470E-04   -0.64456E-04  9552   0.760E-04 0.157E-06
CGA:  15    -0.984568865096E+01   -0.22345E-04   -0.22368E-04  9552   0.311E-04-0.418E-06
CGA:  16    -0.984569736569E+01   -0.87147E-05   -0.87159E-05  9552   0.876E-05-0.368E-07
CGA:  17    -0.984569993574E+01   -0.25700E-05   -0.25739E-05  9552   0.308E-05-0.735E-07
CGA:  18    -0.984570072296E+01   -0.78722E-06   -0.78765E-06  9552   0.903E-06-0.302E-07
   1 F= -.98457007E+01 E0= -.98457007E+01  d E =-.984570E+01
