       N       E                     dE             d eps       ncg     rms          rms(c)
DAV:   1     0.974782205192E+02    0.97478E+02   -0.82221E+03  8208   0.946E+02
DAV:   2    -0.200971773737E+01   -0.99488E+02   -0.94971E+02  9384   0.234E+02
DAV:   3    -0.546466589358E+01   -0.34549E+01   -0.34510E+01 10168   0.453E+01
DAV:   4    -0.549319914062E+01   -0.28533E-01   -0.28532E-01 12256   0.370E+00
DAV:   5    -0.549325692769E+01   -0.57787E-04   -0.57787E-04 10792   0.159E-01
DAV:   6    -0.549325797465E+01   -0.10470E-05   -0.10469E-05 12152   0.157E-02
DAV:   7    -0.549325799126E+01   -0.16602E-07   -0.16639E-07  9064   0.170E-03
   1 F= -.54932580E+01 E0= -.54932580E+01  d E =-.549326E+01
