   8   8   1   0
  0.3631583E+02  0.6623111E-09  0.6623111E-09  0.6623111E-09  0.5000000E-15
  1.000000000000000E-004
  CAR 
 Name                                    
     11.24697850    -10.00872132  301      1.84133133      1.00000000
    -10.009  0.0000E+00  0.0000E+00
     -9.938  0.0000E+00  0.0000E+00
     -9.867  0.0000E+00  0.0000E+00
     -9.796  0.0000E+00  0.0000E+00
     -9.725  0.0000E+00  0.0000E+00
     -9.654  0.0000E+00  0.0000E+00
     -9.584  0.0000E+00  0.0000E+00
     -9.513  0.0000E+00  0.0000E+00
     -9.442  0.0000E+00  0.0000E+00
     -9.371  0.0000E+00  0.0000E+00
     -9.300  0.0000E+00  0.0000E+00
     -9.229  0.0000E+00  0.0000E+00
     -9.158  0.0000E+00  0.0000E+00
     -9.088  0.3999E-10  0.2833E-11
     -9.017  0.4410E+00  0.3125E-01
     -8.946  0.2647E+01  0.2188E+00
     -8.875  0.6484E+01  0.6782E+00
     -8.804  0.4913E+01  0.1026E+01
     -8.733  0.2115E+02  0.2531E+01
     -8.663  0.2264E+02  0.4136E+01
     -8.592  0.5396E+02  0.7959E+01
     -8.521  0.0000E+00  0.8000E+01
     -8.450  0.0000E+00  0.8000E+01
     -8.379  0.0000E+00  0.8000E+01
     -8.308  0.0000E+00  0.8000E+01
     -8.237  0.0000E+00  0.8000E+01
     -8.167  0.0000E+00  0.8000E+01
     -8.096  0.0000E+00  0.8000E+01
     -8.025  0.0000E+00  0.8000E+01
     -7.954  0.0000E+00  0.8000E+01
     -7.883  0.0000E+00  0.8000E+01
     -7.812  0.0000E+00  0.8000E+01
     -7.741  0.0000E+00  0.8000E+01
     -7.671  0.0000E+00  0.8000E+01
     -7.600  0.0000E+00  0.8000E+01
     -7.529  0.0000E+00  0.8000E+01
     -7.458  0.0000E+00  0.8000E+01
     -7.387  0.0000E+00  0.8000E+01
     -7.316  0.0000E+00  0.8000E+01
     -7.245  0.0000E+00  0.8000E+01
     -7.175  0.0000E+00  0.8000E+01
     -7.104  0.0000E+00  0.8000E+01
     -7.033  0.0000E+00  0.8000E+01
     -6.962  0.0000E+00  0.8000E+01
     -6.891  0.0000E+00  0.8000E+01
     -6.820  0.0000E+00  0.8000E+01
     -6.750  0.0000E+00  0.8000E+01
     -6.679  0.0000E+00  0.8000E+01
     -6.608  0.0000E+00  0.8000E+01
     -6.537  0.0000E+00  0.8000E+01
     -6.466  0.0000E+00  0.8000E+01
     -6.395  0.0000E+00  0.8000E+01
     -6.324  0.5800E-02  0.8000E+01
     -6.254  0.4766E+02  0.1138E+02
     -6.183  0.1818E+03  0.2426E+02
     -6.112  0.6499E+02  0.2894E+02
     -6.041  0.1694E+03  0.4103E+02
     -5.970  0.1061E+02  0.4178E+02
     -5.899  0.1056E+02  0.4253E+02
     -5.828  0.6380E+01  0.4298E+02
     -5.758  0.2391E+02  0.4468E+02
     -5.687  0.2174E+02  0.4626E+02
     -5.616  0.2209E+02  0.4783E+02
     -5.545  0.2413E+01  0.4800E+02
     -5.474  0.0000E+00  0.4800E+02
     -5.403  0.0000E+00  0.4800E+02
     -5.332  0.0000E+00  0.4800E+02
     -5.262  0.0000E+00  0.4800E+02
     -5.191  0.0000E+00  0.4800E+02
     -5.120  0.0000E+00  0.4800E+02
     -5.049  0.0000E+00  0.4800E+02
     -4.978  0.0000E+00  0.4800E+02
     -4.907  0.0000E+00  0.4800E+02
     -4.837  0.0000E+00  0.4800E+02
     -4.766  0.0000E+00  0.4800E+02
     -4.695  0.0000E+00  0.4800E+02
     -4.624  0.0000E+00  0.4800E+02
     -4.553  0.0000E+00  0.4800E+02
     -4.482  0.0000E+00  0.4800E+02
     -4.411  0.0000E+00  0.4800E+02
     -4.341  0.0000E+00  0.4800E+02
     -4.270  0.0000E+00  0.4800E+02
     -4.199  0.0000E+00  0.4800E+02
     -4.128  0.0000E+00  0.4800E+02
     -4.057  0.0000E+00  0.4800E+02
     -3.986  0.0000E+00  0.4800E+02
     -3.915  0.0000E+00  0.4800E+02
     -3.845  0.0000E+00  0.4800E+02
     -3.774  0.0000E+00  0.4800E+02
     -3.703  0.0000E+00  0.4800E+02
     -3.632  0.0000E+00  0.4800E+02
     -3.561  0.0000E+00  0.4800E+02
     -3.490  0.0000E+00  0.4800E+02
     -3.419  0.0000E+00  0.4800E+02
     -3.349  0.0000E+00  0.4800E+02
     -3.278  0.0000E+00  0.4800E+02
     -3.207  0.0000E+00  0.4800E+02
     -3.136  0.0000E+00  0.4800E+02
     -3.065  0.0000E+00  0.4800E+02
     -2.994  0.0000E+00  0.4800E+02
     -2.923  0.0000E+00  0.4800E+02
     -2.853  0.0000E+00  0.4800E+02
     -2.782  0.0000E+00  0.4800E+02
     -2.711  0.0000E+00  0.4800E+02
     -2.640  0.0000E+00  0.4800E+02
     -2.569  0.0000E+00  0.4800E+02
     -2.498  0.0000E+00  0.4800E+02
     -2.428  0.0000E+00  0.4800E+02
     -2.357  0.0000E+00  0.4800E+02
     -2.286  0.1213E+01  0.4809E+02
     -2.215  0.1720E+01  0.4821E+02
     -2.144  0.6108E+01  0.4864E+02
     -2.073  0.1786E+02  0.4991E+02
     -2.002  0.2852E+02  0.5193E+02
     -1.932  0.3085E+01  0.5216E+02
     -1.861  0.9777E+01  0.5285E+02
     -1.790  0.2100E+01  0.5306E+02
     -1.719  0.5468E+00  0.5309E+02
     -1.648  0.5293E+01  0.5347E+02
     -1.577  0.1172E-02  0.5347E+02
     -1.506  0.1058E+02  0.5422E+02
     -1.436  0.0000E+00  0.5422E+02
     -1.365  0.0000E+00  0.5422E+02
     -1.294  0.0000E+00  0.5422E+02
     -1.223  0.0000E+00  0.5422E+02
     -1.152  0.3494E-01  0.5422E+02
     -1.081  0.1055E+02  0.5497E+02
     -1.010  0.0000E+00  0.5497E+02
     -0.940  0.0000E+00  0.5497E+02
     -0.869  0.0000E+00  0.5497E+02
     -0.798  0.2582E-01  0.5497E+02
     -0.727  0.6149E+01  0.5541E+02
     -0.656  0.0000E+00  0.5541E+02
     -0.585  0.0000E+00  0.5541E+02
     -0.515  0.8398E-02  0.5541E+02
     -0.444  0.1032E+02  0.5614E+02
     -0.373  0.5554E+01  0.5653E+02
     -0.302  0.6153E+00  0.5657E+02
     -0.231  0.2031E+01  0.5672E+02
     -0.160  0.5732E+01  0.5712E+02
     -0.089  0.1061E+02  0.5790E+02
     -0.019  0.2667E+02  0.5978E+02
      0.052  0.1230E+02  0.6066E+02
      0.123  0.7609E+00  0.6071E+02
      0.194  0.1885E+01  0.6084E+02
      0.265  0.1649E-11  0.6084E+02
      0.336  0.8181E+01  0.6142E+02
      0.407  0.8690E+01  0.6204E+02
      0.477  0.2933E+02  0.6412E+02
      0.548  0.8036E+01  0.6472E+02
      0.619  0.1146E+02  0.6553E+02
      0.690  0.1058E+02  0.6628E+02
      0.761  0.0000E+00  0.6628E+02
      0.832  0.8421E+01  0.6688E+02
      0.903  0.7457E+01  0.6741E+02
      0.973  0.1054E+02  0.6815E+02
      1.044  0.2167E+00  0.6817E+02
      1.115  0.3483E+02  0.7064E+02
      1.186  0.0000E+00  0.7066E+02
      1.257  0.0000E+00  0.7066E+02
      1.328  0.0000E+00  0.7066E+02
      1.399  0.1400E+01  0.7076E+02
      1.469  0.1085E+02  0.7152E+02
      1.540  0.0000E+00  0.7153E+02
      1.611  0.1626E+01  0.7165E+02
      1.682  0.3667E+01  0.7191E+02
      1.753  0.7430E-04  0.7191E+02
      1.824  0.1323E+01  0.7200E+02
      1.894  0.0000E+00  0.7200E+02
      1.965  0.0000E+00  0.7200E+02
      2.036  0.0000E+00  0.7200E+02
      2.107  0.0000E+00  0.7200E+02
      2.178  0.0000E+00  0.7200E+02
      2.249  0.0000E+00  0.7200E+02
      2.320  0.1188E-06  0.7200E+02
      2.390  0.4411E+00  0.7203E+02
      2.461  0.0000E+00  0.7203E+02
      2.532  0.0000E+00  0.7203E+02
      2.603  0.0000E+00  0.7203E+02
      2.674  0.0000E+00  0.7203E+02
      2.745  0.0000E+00  0.7203E+02
      2.816  0.0000E+00  0.7203E+02
      2.886  0.0000E+00  0.7203E+02
      2.957  0.0000E+00  0.7203E+02
      3.028  0.0000E+00  0.7203E+02
      3.099  0.0000E+00  0.7203E+02
      3.170  0.0000E+00  0.7203E+02
      3.241  0.0000E+00  0.7203E+02
      3.312  0.0000E+00  0.7203E+02
      3.382  0.0000E+00  0.7203E+02
      3.453  0.0000E+00  0.7203E+02
      3.524  0.3056E+00  0.7205E+02
      3.595  0.1459E+01  0.7216E+02
      3.666  0.6026E+01  0.7258E+02
      3.737  0.0000E+00  0.7259E+02
      3.807  0.0000E+00  0.7259E+02
      3.878  0.1884E+01  0.7273E+02
      3.949  0.3409E+01  0.7297E+02
      4.020  0.0000E+00  0.7297E+02
      4.091  0.0000E+00  0.7297E+02
      4.162  0.6085E-01  0.7297E+02
      4.233  0.1566E+02  0.7408E+02
      4.303  0.5451E+01  0.7447E+02
      4.374  0.0000E+00  0.7447E+02
      4.445  0.4771E+00  0.7450E+02
      4.516  0.3666E+01  0.7476E+02
      4.587  0.1610E+01  0.7488E+02
      4.658  0.2186E+01  0.7503E+02
      4.729  0.2640E+02  0.7690E+02
      4.799  0.5287E+01  0.7728E+02
      4.870  0.9821E+01  0.7798E+02
      4.941  0.3406E+01  0.7822E+02
      5.012  0.1131E+01  0.7830E+02
      5.083  0.1475E+02  0.7934E+02
      5.154  0.6915E-01  0.7935E+02
      5.225  0.7870E+01  0.7991E+02
      5.295  0.1050E+02  0.8065E+02
      5.366  0.2516E-01  0.8066E+02
      5.437  0.1056E+02  0.8141E+02
      5.508  0.0000E+00  0.8141E+02
      5.579  0.0000E+00  0.8141E+02
      5.650  0.0000E+00  0.8141E+02
      5.720  0.0000E+00  0.8141E+02
      5.791  0.1415E+00  0.8142E+02
      5.862  0.1568E+02  0.8253E+02
      5.933  0.0000E+00  0.8253E+02
      6.004  0.0000E+00  0.8253E+02
      6.075  0.0000E+00  0.8253E+02
      6.146  0.0000E+00  0.8253E+02
      6.216  0.1127E+02  0.8333E+02
      6.287  0.9895E+01  0.8403E+02
      6.358  0.1175E-14  0.8403E+02
      6.429  0.1212E+02  0.8489E+02
      6.500  0.1256E+02  0.8581E+02
      6.571  0.0000E+00  0.8581E+02
      6.642  0.0000E+00  0.8581E+02
      6.712  0.1036E+01  0.8589E+02
      6.783  0.2409E+02  0.8759E+02
      6.854  0.1334E+01  0.8769E+02
      6.925  0.2842E+01  0.8789E+02
      6.996  0.1801E+02  0.8916E+02
      7.067  0.3528E+01  0.8944E+02
      7.138  0.8837E+00  0.8950E+02
      7.208  0.1499E+02  0.9056E+02
      7.279  0.1352E+02  0.9152E+02
      7.350  0.1551E+02  0.9262E+02
      7.421  0.0000E+00  0.9262E+02
      7.492  0.9992E-06  0.9263E+02
      7.563  0.1059E+02  0.9337E+02
      7.634  0.7353E+01  0.9390E+02
      7.704  0.3233E+01  0.9412E+02
      7.775  0.2168E-01  0.9413E+02
      7.846  0.1056E+02  0.9487E+02
      7.917  0.6464E+01  0.9533E+02
      7.988  0.0000E+00  0.9538E+02
      8.059  0.4521E-08  0.9538E+02
      8.129  0.2646E+01  0.9556E+02
      8.200  0.0000E+00  0.9556E+02
      8.271  0.0000E+00  0.9556E+02
      8.342  0.0000E+00  0.9556E+02
      8.413  0.0000E+00  0.9556E+02
      8.484  0.0000E+00  0.9556E+02
      8.555  0.0000E+00  0.9556E+02
      8.625  0.0000E+00  0.9556E+02
      8.696  0.0000E+00  0.9556E+02
      8.767  0.0000E+00  0.9556E+02
      8.838  0.0000E+00  0.9556E+02
      8.909  0.0000E+00  0.9556E+02
      8.980  0.0000E+00  0.9556E+02
      9.051  0.1622E+01  0.9568E+02
      9.121  0.3670E+01  0.9594E+02
      9.192  0.4411E+00  0.9597E+02
      9.263  0.0000E+00  0.9597E+02
      9.334  0.0000E+00  0.9597E+02
      9.405  0.0000E+00  0.9597E+02
      9.476  0.0000E+00  0.9597E+02
      9.547  0.0000E+00  0.9597E+02
      9.617  0.0000E+00  0.9597E+02
      9.688  0.0000E+00  0.9597E+02
      9.759  0.0000E+00  0.9597E+02
      9.830  0.0000E+00  0.9597E+02
      9.901  0.0000E+00  0.9597E+02
      9.972  0.0000E+00  0.9597E+02
     10.042  0.0000E+00  0.9597E+02
     10.113  0.0000E+00  0.9597E+02
     10.184  0.0000E+00  0.9597E+02
     10.255  0.5928E-04  0.9597E+02
     10.326  0.4410E+00  0.9600E+02
     10.397  0.0000E+00  0.9600E+02
     10.468  0.0000E+00  0.9600E+02
     10.538  0.0000E+00  0.9600E+02
     10.609  0.0000E+00  0.9600E+02
     10.680  0.0000E+00  0.9600E+02
     10.751  0.0000E+00  0.9600E+02
     10.822  0.0000E+00  0.9600E+02
     10.893  0.0000E+00  0.9600E+02
     10.964  0.0000E+00  0.9600E+02
     11.034  0.0000E+00  0.9600E+02
     11.105  0.0000E+00  0.9600E+02
     11.176  0.0000E+00  0.9600E+02
     11.247  0.0000E+00  0.9600E+02
     11.24697850    -10.00872132  301      1.84133133      1.00000000
    -10.009  0.0000E+00  0.0000E+00  0.0000E+00
     -9.938  0.0000E+00  0.0000E+00  0.0000E+00
     -9.867  0.0000E+00  0.0000E+00  0.0000E+00
     -9.796  0.0000E+00  0.0000E+00  0.0000E+00
     -9.725  0.0000E+00  0.0000E+00  0.0000E+00
     -9.654  0.0000E+00  0.0000E+00  0.0000E+00
     -9.584  0.0000E+00  0.0000E+00  0.0000E+00
     -9.513  0.0000E+00  0.0000E+00  0.0000E+00
     -9.442  0.0000E+00  0.0000E+00  0.0000E+00
     -9.371  0.0000E+00  0.0000E+00  0.0000E+00
     -9.300  0.0000E+00  0.0000E+00  0.0000E+00
     -9.229  0.0000E+00  0.0000E+00  0.0000E+00
     -9.158  0.0000E+00  0.0000E+00  0.0000E+00
     -9.088  0.5366E-12  0.1989E-26  0.4147E-26
     -9.017  0.5918E-02  0.4846E-11  0.3755E-10
     -8.946  0.3101E-01  0.1090E-02  0.8445E-02
     -8.875  0.6432E-01  0.5312E-02  0.4500E-01
     -8.804  0.3910E-01  0.6155E-02  0.5551E-01
     -8.733  0.1221E+00  0.3595E-01  0.3530E+00
     -8.663  0.7281E-01  0.4960E-01  0.5363E+00
     -8.592  0.6662E-01  0.1396E+00  0.1572E+01
     -8.521  0.0000E+00  0.0000E+00  0.0000E+00
     -8.450  0.0000E+00  0.0000E+00  0.0000E+00
     -8.379  0.0000E+00  0.0000E+00  0.0000E+00
     -8.308  0.0000E+00  0.0000E+00  0.0000E+00
     -8.237  0.0000E+00  0.0000E+00  0.0000E+00
     -8.167  0.0000E+00  0.0000E+00  0.0000E+00
     -8.096  0.0000E+00  0.0000E+00  0.0000E+00
     -8.025  0.0000E+00  0.0000E+00  0.0000E+00
     -7.954  0.0000E+00  0.0000E+00  0.0000E+00
     -7.883  0.0000E+00  0.0000E+00  0.0000E+00
     -7.812  0.0000E+00  0.0000E+00  0.0000E+00
     -7.741  0.0000E+00  0.0000E+00  0.0000E+00
     -7.671  0.0000E+00  0.0000E+00  0.0000E+00
     -7.600  0.0000E+00  0.0000E+00  0.0000E+00
     -7.529  0.0000E+00  0.0000E+00  0.0000E+00
     -7.458  0.0000E+00  0.0000E+00  0.0000E+00
     -7.387  0.0000E+00  0.0000E+00  0.0000E+00
     -7.316  0.0000E+00  0.0000E+00  0.0000E+00
     -7.245  0.0000E+00  0.0000E+00  0.0000E+00
     -7.175  0.0000E+00  0.0000E+00  0.0000E+00
     -7.104  0.0000E+00  0.0000E+00  0.0000E+00
     -7.033  0.0000E+00  0.0000E+00  0.0000E+00
     -6.962  0.0000E+00  0.0000E+00  0.0000E+00
     -6.891  0.0000E+00  0.0000E+00  0.0000E+00
     -6.820  0.0000E+00  0.0000E+00  0.0000E+00
     -6.750  0.0000E+00  0.0000E+00  0.0000E+00
     -6.679  0.0000E+00  0.0000E+00  0.0000E+00
     -6.608  0.0000E+00  0.0000E+00  0.0000E+00
     -6.537  0.0000E+00  0.0000E+00  0.0000E+00
     -6.466  0.0000E+00  0.0000E+00  0.0000E+00
     -6.395  0.0000E+00  0.0000E+00  0.0000E+00
     -6.324  0.2697E-15  0.4065E-06  0.1320E-02
     -6.254  0.2277E-02  0.3720E-02  0.1092E+02
     -6.183  0.9567E-02  0.1573E-01  0.4202E+02
     -6.112  0.1643E-01  0.6597E-03  0.1512E+02
     -6.041  0.5328E-02  0.4068E-03  0.4009E+02
     -5.970  0.2031E-01  0.1056E-02  0.2315E+01
     -5.899  0.2172E-01  0.1724E-02  0.2272E+01
     -5.828  0.1239E-01  0.1886E-02  0.1350E+01
     -5.758  0.3622E-01  0.9866E-02  0.5036E+01
     -5.687  0.2395E-01  0.1096E-01  0.4563E+01
     -5.616  0.9605E-02  0.1588E-01  0.4578E+01
     -5.545  0.8253E-21  0.1926E-02  0.4990E+00
     -5.474  0.0000E+00  0.0000E+00  0.0000E+00
     -5.403  0.0000E+00  0.0000E+00  0.0000E+00
     -5.332  0.0000E+00  0.0000E+00  0.0000E+00
     -5.262  0.0000E+00  0.0000E+00  0.0000E+00
     -5.191  0.0000E+00  0.0000E+00  0.0000E+00
     -5.120  0.0000E+00  0.0000E+00  0.0000E+00
     -5.049  0.0000E+00  0.0000E+00  0.0000E+00
     -4.978  0.0000E+00  0.0000E+00  0.0000E+00
     -4.907  0.0000E+00  0.0000E+00  0.0000E+00
     -4.837  0.0000E+00  0.0000E+00  0.0000E+00
     -4.766  0.0000E+00  0.0000E+00  0.0000E+00
     -4.695  0.0000E+00  0.0000E+00  0.0000E+00
     -4.624  0.0000E+00  0.0000E+00  0.0000E+00
     -4.553  0.0000E+00  0.0000E+00  0.0000E+00
     -4.482  0.0000E+00  0.0000E+00  0.0000E+00
     -4.411  0.0000E+00  0.0000E+00  0.0000E+00
     -4.341  0.0000E+00  0.0000E+00  0.0000E+00
     -4.270  0.0000E+00  0.0000E+00  0.0000E+00
     -4.199  0.0000E+00  0.0000E+00  0.0000E+00
     -4.128  0.0000E+00  0.0000E+00  0.0000E+00
     -4.057  0.0000E+00  0.0000E+00  0.0000E+00
     -3.986  0.0000E+00  0.0000E+00  0.0000E+00
     -3.915  0.0000E+00  0.0000E+00  0.0000E+00
     -3.845  0.0000E+00  0.0000E+00  0.0000E+00
     -3.774  0.0000E+00  0.0000E+00  0.0000E+00
     -3.703  0.0000E+00  0.0000E+00  0.0000E+00
     -3.632  0.0000E+00  0.0000E+00  0.0000E+00
     -3.561  0.0000E+00  0.0000E+00  0.0000E+00
     -3.490  0.0000E+00  0.0000E+00  0.0000E+00
     -3.419  0.0000E+00  0.0000E+00  0.0000E+00
     -3.349  0.0000E+00  0.0000E+00  0.0000E+00
     -3.278  0.0000E+00  0.0000E+00  0.0000E+00
     -3.207  0.0000E+00  0.0000E+00  0.0000E+00
     -3.136  0.0000E+00  0.0000E+00  0.0000E+00
     -3.065  0.0000E+00  0.0000E+00  0.0000E+00
     -2.994  0.0000E+00  0.0000E+00  0.0000E+00
     -2.923  0.0000E+00  0.0000E+00  0.0000E+00
     -2.853  0.0000E+00  0.0000E+00  0.0000E+00
     -2.782  0.0000E+00  0.0000E+00  0.0000E+00
     -2.711  0.0000E+00  0.0000E+00  0.0000E+00
     -2.640  0.0000E+00  0.0000E+00  0.0000E+00
     -2.569  0.0000E+00  0.0000E+00  0.0000E+00
     -2.498  0.0000E+00  0.0000E+00  0.0000E+00
     -2.428  0.0000E+00  0.0000E+00  0.0000E+00
     -2.357  0.0000E+00  0.0000E+00  0.0000E+00
     -2.286  0.5078E-01  0.6898E-02  0.3742E-04
     -2.215  0.9306E-01  0.3134E-02  0.6518E-02
     -2.144  0.3706E+00  0.2394E-02  0.2035E-01
     -2.073  0.1001E+01  0.3775E-01  0.2327E-01
     -2.002  0.1468E+01  0.8862E-01  0.7971E-01
     -1.932  0.1630E+00  0.7901E-02  0.1146E-01
     -1.861  0.5435E+00  0.1240E-01  0.6629E-01
     -1.790  0.1150E+00  0.1642E-02  0.2030E-01
     -1.719  0.2995E-01  0.4277E-03  0.5288E-02
     -1.648  0.2585E+00  0.1815E-01  0.3194E-01
     -1.577  0.4808E-04  0.5938E-05  0.8770E-05
     -1.506  0.4343E+00  0.5364E-01  0.7923E-01
     -1.436  0.0000E+00  0.0000E+00  0.0000E+00
     -1.365  0.0000E+00  0.0000E+00  0.0000E+00
     -1.294  0.0000E+00  0.0000E+00  0.0000E+00
     -1.223  0.0000E+00  0.0000E+00  0.0000E+00
     -1.152  0.1546E-02  0.1224E-03  0.3693E-03
     -1.081  0.4667E+00  0.3694E-01  0.1115E+00
     -1.010  0.0000E+00  0.0000E+00  0.0000E+00
     -0.940  0.0000E+00  0.0000E+00  0.0000E+00
     -0.869  0.0000E+00  0.0000E+00  0.0000E+00
     -0.798  0.9003E-03  0.1521E-03  0.2714E-03
     -0.727  0.2433E+00  0.2609E-01  0.7161E-01
     -0.656  0.0000E+00  0.0000E+00  0.0000E+00
     -0.585  0.0000E+00  0.0000E+00  0.0000E+00
     -0.515  0.3164E-07  0.1435E-03  0.4193E-04
     -0.444  0.7738E-02  0.1720E+00  0.5676E-01
     -0.373  0.8521E-02  0.9021E-01  0.3353E-01
     -0.302  0.1160E-20  0.9244E-02  0.5606E-02
     -0.231  0.1056E-16  0.3051E-01  0.1850E-01
     -0.160  0.1808E+00  0.3688E-01  0.6214E-01
     -0.089  0.2410E-01  0.1739E+00  0.6246E-01
     -0.019  0.1246E+00  0.4116E+00  0.1761E+00
      0.052  0.1947E-01  0.2076E+00  0.6638E-01
      0.123  0.4370E-20  0.1378E-01  0.2914E-02
      0.194  0.1083E-19  0.3415E-01  0.7221E-02
      0.265  0.1365E-30  0.2863E-13  0.9074E-14
      0.336  0.1079E-02  0.1405E+00  0.4766E-01
      0.407  0.2857E-02  0.1467E+00  0.5528E-01
      0.477  0.5934E-01  0.4584E+00  0.2255E+00
      0.548  0.9578E-01  0.9459E-01  0.7684E-01
      0.619  0.3956E-01  0.1739E+00  0.8766E-01
      0.690  0.1771E-02  0.1673E+00  0.8552E-01
      0.761  0.0000E+00  0.0000E+00  0.0000E+00
      0.832  0.2347E-01  0.1155E+00  0.8410E-01
      0.903  0.3978E-01  0.9512E-01  0.7728E-01
      0.973  0.6220E-17  0.1501E+00  0.1055E+00
      1.044  0.2442E-03  0.2843E-02  0.2381E-02
      1.115  0.1906E-01  0.4630E+00  0.3783E+00
      1.186  0.0000E+00  0.0000E+00  0.0000E+00
      1.257  0.0000E+00  0.0000E+00  0.0000E+00
      1.328  0.0000E+00  0.0000E+00  0.0000E+00
      1.399  0.9063E-23  0.1497E-01  0.1870E-01
      1.469  0.5054E-19  0.1118E+00  0.1498E+00
      1.540  0.0000E+00  0.0000E+00  0.0000E+00
      1.611  0.9479E-21  0.1384E-01  0.2440E-01
      1.682  0.2138E-20  0.3123E-01  0.5504E-01
      1.753  0.1456E-26  0.4523E-06  0.1255E-05
      1.824  0.2592E-22  0.8055E-02  0.2236E-01
      1.894  0.0000E+00  0.0000E+00  0.0000E+00
      1.965  0.0000E+00  0.0000E+00  0.0000E+00
      2.036  0.0000E+00  0.0000E+00  0.0000E+00
      2.107  0.0000E+00  0.0000E+00  0.0000E+00
      2.178  0.0000E+00  0.0000E+00  0.0000E+00
      2.249  0.0000E+00  0.0000E+00  0.0000E+00
      2.320  0.9706E-08  0.1931E-26  0.1216E-26
      2.390  0.3605E-01  0.7172E-20  0.4518E-20
      2.461  0.0000E+00  0.0000E+00  0.0000E+00
      2.532  0.0000E+00  0.0000E+00  0.0000E+00
      2.603  0.0000E+00  0.0000E+00  0.0000E+00
      2.674  0.0000E+00  0.0000E+00  0.0000E+00
      2.745  0.0000E+00  0.0000E+00  0.0000E+00
      2.816  0.0000E+00  0.0000E+00  0.0000E+00
      2.886  0.0000E+00  0.0000E+00  0.0000E+00
      2.957  0.0000E+00  0.0000E+00  0.0000E+00
      3.028  0.0000E+00  0.0000E+00  0.0000E+00
      3.099  0.0000E+00  0.0000E+00  0.0000E+00
      3.170  0.0000E+00  0.0000E+00  0.0000E+00
      3.241  0.0000E+00  0.0000E+00  0.0000E+00
      3.312  0.0000E+00  0.0000E+00  0.0000E+00
      3.382  0.0000E+00  0.0000E+00  0.0000E+00
      3.453  0.0000E+00  0.0000E+00  0.0000E+00
      3.524  0.1889E-01  0.2461E-02  0.5407E-03
      3.595  0.9022E-01  0.1175E-01  0.2583E-02
      3.666  0.3336E+00  0.3866E-01  0.1230E-01
      3.737  0.0000E+00  0.0000E+00  0.0000E+00
      3.807  0.0000E+00  0.0000E+00  0.0000E+00
      3.878  0.1031E+00  0.1264E-01  0.3116E-02
      3.949  0.1866E+00  0.2287E-01  0.5640E-02
      4.020  0.0000E+00  0.0000E+00  0.0000E+00
      4.091  0.0000E+00  0.0000E+00  0.0000E+00
      4.162  0.3344E-02  0.5603E-03  0.1299E-03
      4.233  0.8553E+00  0.1389E+00  0.3479E-01
      4.303  0.2940E+00  0.4458E-01  0.1309E-01
      4.374  0.0000E+00  0.0000E+00  0.0000E+00
      4.445  0.2562E-01  0.5133E-06  0.3824E-02
      4.516  0.1623E+00  0.2621E-01  0.2518E-01
      4.587  0.2822E-01  0.2866E-01  0.1051E-01
      4.658  0.1340E+00  0.3256E-03  0.1032E-01
      4.729  0.1253E+01  0.2180E+00  0.1101E+00
      4.799  0.2825E+00  0.6031E-01  0.9791E-02
      4.870  0.4091E+00  0.1114E+00  0.3725E-01
      4.941  0.1794E+00  0.2831E-01  0.9992E-02
      5.012  0.6151E-01  0.1568E-02  0.6553E-02
      5.083  0.8198E+00  0.2385E-01  0.8085E-01
      5.154  0.1418E-04  0.2437E-02  0.1244E-03
      5.225  0.5651E-03  0.2153E+00  0.4491E-01
      5.295  0.5298E+00  0.8545E-01  0.3806E-01
      5.366  0.3035E-04  0.6550E-03  0.1489E-03
      5.437  0.1274E-01  0.2749E+00  0.6251E-01
      5.508  0.0000E+00  0.0000E+00  0.0000E+00
      5.579  0.0000E+00  0.0000E+00  0.0000E+00
      5.650  0.0000E+00  0.0000E+00  0.0000E+00
      5.720  0.0000E+00  0.0000E+00  0.0000E+00
      5.791  0.6889E-02  0.1153E-02  0.3563E-03
      5.862  0.2132E+00  0.4823E+00  0.4260E-01
      5.933  0.0000E+00  0.0000E+00  0.0000E+00
      6.004  0.0000E+00  0.0000E+00  0.0000E+00
      6.075  0.0000E+00  0.0000E+00  0.0000E+00
      6.146  0.0000E+00  0.0000E+00  0.0000E+00
      6.216  0.2263E+00  0.1646E+00  0.5394E-01
      6.287  0.1400E+00  0.2444E+00  0.3856E-01
      6.358  0.6987E-17  0.4242E-16  0.4401E-17
      6.429  0.6120E-01  0.4564E+00  0.4346E-01
      6.500  0.5940E-02  0.2443E+00  0.1031E+00
      6.571  0.0000E+00  0.0000E+00  0.0000E+00
      6.642  0.0000E+00  0.0000E+00  0.0000E+00
      6.712  0.3458E-02  0.3640E-01  0.4179E-02
      6.783  0.8950E-01  0.6256E+00  0.1436E+00
      6.854  0.2350E-02  0.3820E-01  0.8926E-02
      6.925  0.7640E-12  0.1490E+00  0.6995E-02
      6.996  0.4447E-01  0.7117E+00  0.6378E-01
      7.067  0.4179E-01  0.7367E-01  0.1190E-01
      7.138  0.4462E-02  0.3129E-01  0.3235E-02
      7.208  0.5177E-01  0.5767E+00  0.4990E-01
      7.279  0.8450E-04  0.5712E+00  0.6887E-01
      7.350  0.1918E-01  0.3832E+00  0.1069E+00
      7.421  0.0000E+00  0.0000E+00  0.0000E+00
      7.492  0.1682E-14  0.4211E-07  0.5466E-08
      7.563  0.1782E-07  0.4461E+00  0.5790E-01
      7.634  0.2644E-01  0.1404E+00  0.4760E-01
      7.704  0.1156E-01  0.6200E-01  0.2085E-01
      7.775  0.5136E-04  0.5543E-03  0.1374E-03
      7.846  0.2502E-01  0.2700E+00  0.6693E-01
      7.917  0.5347E-02  0.1895E+00  0.5250E-01
      7.988  0.0000E+00  0.0000E+00  0.0000E+00
      8.059  0.1051E-17  0.1027E-09  0.3857E-10
      8.129  0.6289E-09  0.6048E-01  0.2248E-01
      8.200  0.0000E+00  0.0000E+00  0.0000E+00
      8.271  0.0000E+00  0.0000E+00  0.0000E+00
      8.342  0.0000E+00  0.0000E+00  0.0000E+00
      8.413  0.0000E+00  0.0000E+00  0.0000E+00
      8.484  0.0000E+00  0.0000E+00  0.0000E+00
      8.555  0.0000E+00  0.0000E+00  0.0000E+00
      8.625  0.0000E+00  0.0000E+00  0.0000E+00
      8.696  0.0000E+00  0.0000E+00  0.0000E+00
      8.767  0.0000E+00  0.0000E+00  0.0000E+00
      8.838  0.0000E+00  0.0000E+00  0.0000E+00
      8.909  0.0000E+00  0.0000E+00  0.0000E+00
      8.980  0.0000E+00  0.0000E+00  0.0000E+00
      9.051  0.6270E-04  0.5922E-01  0.8269E-02
      9.121  0.1447E-03  0.1340E+00  0.1871E-01
      9.192  0.2446E-01  0.1454E-16  0.5640E-15
      9.263  0.0000E+00  0.0000E+00  0.0000E+00
      9.334  0.0000E+00  0.0000E+00  0.0000E+00
      9.405  0.0000E+00  0.0000E+00  0.0000E+00
      9.476  0.0000E+00  0.0000E+00  0.0000E+00
      9.547  0.0000E+00  0.0000E+00  0.0000E+00
      9.617  0.0000E+00  0.0000E+00  0.0000E+00
      9.688  0.0000E+00  0.0000E+00  0.0000E+00
      9.759  0.0000E+00  0.0000E+00  0.0000E+00
      9.830  0.0000E+00  0.0000E+00  0.0000E+00
      9.901  0.0000E+00  0.0000E+00  0.0000E+00
      9.972  0.0000E+00  0.0000E+00  0.0000E+00
     10.042  0.0000E+00  0.0000E+00  0.0000E+00
     10.113  0.0000E+00  0.0000E+00  0.0000E+00
     10.184  0.0000E+00  0.0000E+00  0.0000E+00
     10.255  0.4011E-07  0.4768E-12  0.1675E-06
     10.326  0.2984E-03  0.3547E-08  0.1246E-02
     10.397  0.0000E+00  0.0000E+00  0.0000E+00
     10.468  0.0000E+00  0.0000E+00  0.0000E+00
     10.538  0.0000E+00  0.0000E+00  0.0000E+00
     10.609  0.0000E+00  0.0000E+00  0.0000E+00
     10.680  0.0000E+00  0.0000E+00  0.0000E+00
     10.751  0.0000E+00  0.0000E+00  0.0000E+00
     10.822  0.0000E+00  0.0000E+00  0.0000E+00
     10.893  0.0000E+00  0.0000E+00  0.0000E+00
     10.964  0.0000E+00  0.0000E+00  0.0000E+00
     11.034  0.0000E+00  0.0000E+00  0.0000E+00
     11.105  0.0000E+00  0.0000E+00  0.0000E+00
     11.176  0.0000E+00  0.0000E+00  0.0000E+00
     11.247  0.0000E+00  0.0000E+00  0.0000E+00
     11.24697850    -10.00872132  301      1.84133133      1.00000000
    -10.009  0.0000E+00  0.0000E+00  0.0000E+00
     -9.938  0.0000E+00  0.0000E+00  0.0000E+00
     -9.867  0.0000E+00  0.0000E+00  0.0000E+00
     -9.796  0.0000E+00  0.0000E+00  0.0000E+00
     -9.725  0.0000E+00  0.0000E+00  0.0000E+00
     -9.654  0.0000E+00  0.0000E+00  0.0000E+00
     -9.584  0.0000E+00  0.0000E+00  0.0000E+00
     -9.513  0.0000E+00  0.0000E+00  0.0000E+00
     -9.442  0.0000E+00  0.0000E+00  0.0000E+00
     -9.371  0.0000E+00  0.0000E+00  0.0000E+00
     -9.300  0.0000E+00  0.0000E+00  0.0000E+00
     -9.229  0.0000E+00  0.0000E+00  0.0000E+00
     -9.158  0.0000E+00  0.0000E+00  0.0000E+00
     -9.088  0.5366E-12  0.1975E-26  0.4295E-26
     -9.017  0.5918E-02  0.4846E-11  0.3755E-10
     -8.946  0.3101E-01  0.1090E-02  0.8445E-02
     -8.875  0.6432E-01  0.5312E-02  0.4500E-01
     -8.804  0.3910E-01  0.6155E-02  0.5551E-01
     -8.733  0.1221E+00  0.3595E-01  0.3530E+00
     -8.663  0.7281E-01  0.4960E-01  0.5363E+00
     -8.592  0.6662E-01  0.1396E+00  0.1572E+01
     -8.521  0.0000E+00  0.0000E+00  0.0000E+00
     -8.450  0.0000E+00  0.0000E+00  0.0000E+00
     -8.379  0.0000E+00  0.0000E+00  0.0000E+00
     -8.308  0.0000E+00  0.0000E+00  0.0000E+00
     -8.237  0.0000E+00  0.0000E+00  0.0000E+00
     -8.167  0.0000E+00  0.0000E+00  0.0000E+00
     -8.096  0.0000E+00  0.0000E+00  0.0000E+00
     -8.025  0.0000E+00  0.0000E+00  0.0000E+00
     -7.954  0.0000E+00  0.0000E+00  0.0000E+00
     -7.883  0.0000E+00  0.0000E+00  0.0000E+00
     -7.812  0.0000E+00  0.0000E+00  0.0000E+00
     -7.741  0.0000E+00  0.0000E+00  0.0000E+00
     -7.671  0.0000E+00  0.0000E+00  0.0000E+00
     -7.600  0.0000E+00  0.0000E+00  0.0000E+00
     -7.529  0.0000E+00  0.0000E+00  0.0000E+00
     -7.458  0.0000E+00  0.0000E+00  0.0000E+00
     -7.387  0.0000E+00  0.0000E+00  0.0000E+00
     -7.316  0.0000E+00  0.0000E+00  0.0000E+00
     -7.245  0.0000E+00  0.0000E+00  0.0000E+00
     -7.175  0.0000E+00  0.0000E+00  0.0000E+00
     -7.104  0.0000E+00  0.0000E+00  0.0000E+00
     -7.033  0.0000E+00  0.0000E+00  0.0000E+00
     -6.962  0.0000E+00  0.0000E+00  0.0000E+00
     -6.891  0.0000E+00  0.0000E+00  0.0000E+00
     -6.820  0.0000E+00  0.0000E+00  0.0000E+00
     -6.750  0.0000E+00  0.0000E+00  0.0000E+00
     -6.679  0.0000E+00  0.0000E+00  0.0000E+00
     -6.608  0.0000E+00  0.0000E+00  0.0000E+00
     -6.537  0.0000E+00  0.0000E+00  0.0000E+00
     -6.466  0.0000E+00  0.0000E+00  0.0000E+00
     -6.395  0.0000E+00  0.0000E+00  0.0000E+00
     -6.324  0.2697E-15  0.4065E-06  0.1320E-02
     -6.254  0.2277E-02  0.3720E-02  0.1092E+02
     -6.183  0.9567E-02  0.1573E-01  0.4202E+02
     -6.112  0.1643E-01  0.6597E-03  0.1512E+02
     -6.041  0.5328E-02  0.4068E-03  0.4009E+02
     -5.970  0.2031E-01  0.1056E-02  0.2315E+01
     -5.899  0.2172E-01  0.1724E-02  0.2272E+01
     -5.828  0.1239E-01  0.1886E-02  0.1350E+01
     -5.758  0.3622E-01  0.9866E-02  0.5036E+01
     -5.687  0.2395E-01  0.1096E-01  0.4563E+01
     -5.616  0.9605E-02  0.1588E-01  0.4578E+01
     -5.545  0.6264E-21  0.1926E-02  0.4990E+00
     -5.474  0.0000E+00  0.0000E+00  0.0000E+00
     -5.403  0.0000E+00  0.0000E+00  0.0000E+00
     -5.332  0.0000E+00  0.0000E+00  0.0000E+00
     -5.262  0.0000E+00  0.0000E+00  0.0000E+00
     -5.191  0.0000E+00  0.0000E+00  0.0000E+00
     -5.120  0.0000E+00  0.0000E+00  0.0000E+00
     -5.049  0.0000E+00  0.0000E+00  0.0000E+00
     -4.978  0.0000E+00  0.0000E+00  0.0000E+00
     -4.907  0.0000E+00  0.0000E+00  0.0000E+00
     -4.837  0.0000E+00  0.0000E+00  0.0000E+00
     -4.766  0.0000E+00  0.0000E+00  0.0000E+00
     -4.695  0.0000E+00  0.0000E+00  0.0000E+00
     -4.624  0.0000E+00  0.0000E+00  0.0000E+00
     -4.553  0.0000E+00  0.0000E+00  0.0000E+00
     -4.482  0.0000E+00  0.0000E+00  0.0000E+00
     -4.411  0.0000E+00  0.0000E+00  0.0000E+00
     -4.341  0.0000E+00  0.0000E+00  0.0000E+00
     -4.270  0.0000E+00  0.0000E+00  0.0000E+00
     -4.199  0.0000E+00  0.0000E+00  0.0000E+00
     -4.128  0.0000E+00  0.0000E+00  0.0000E+00
     -4.057  0.0000E+00  0.0000E+00  0.0000E+00
     -3.986  0.0000E+00  0.0000E+00  0.0000E+00
     -3.915  0.0000E+00  0.0000E+00  0.0000E+00
     -3.845  0.0000E+00  0.0000E+00  0.0000E+00
     -3.774  0.0000E+00  0.0000E+00  0.0000E+00
     -3.703  0.0000E+00  0.0000E+00  0.0000E+00