    8    8    1    1
  0.3631583E+02  0.6623111E-09  0.6623111E-09  0.6623111E-09  0.5000000E-15
  1.000000000000000E-004
  CAR 
 Name                                    
     72     10     48
 
  0.0000000E+00  0.0000000E+00  0.0000000E+00  0.1562500E-01
    1       -9.042553
    2       -8.601885
    3       -8.601885
    4       -8.601885
    5       -6.305866
    6       -6.305866
    7       -6.305866
    8       -6.172555
    9       -6.172555
   10       -6.172555
   11       -6.172555
   12       -6.172555
   13       -6.172555
   14       -6.170038
   15       -6.170038
   16       -6.170038
   17       -6.090910
   18       -6.090910
   19       -6.065407
   20       -6.065407
   21       -6.065407
   22       -5.669550
   23       -5.669550
   24       -5.669550
   25       -2.223382
   26       -2.223382
   27       -2.223382
   28        0.127127
   29        0.127127
   30        0.127127
   31        0.127127
   32        0.127127
   33        0.127127
   34        1.780077
   35        1.780077
   36        1.780077
   37        2.355025
   38        4.447679
   39        4.447679
   40        4.447679
   41        4.523939
   42        4.523939
   43        4.523939
   44        6.418614
   45        6.418614
   46        6.418614
   47        9.151535
   48       10.280810
 
  0.2500000E+00  0.0000000E+00  0.0000000E+00  0.9375000E-01
    1       -8.976126
    2       -8.663030
    3       -8.602529
    4       -8.602529
    5       -6.287906
    6       -6.287906
    7       -6.261489
    8       -6.193768
    9       -6.193768
   10       -6.191544
   11       -6.191544
   12       -6.190173
   13       -6.190173
   14       -6.162166
   15       -6.139695
   16       -6.139695
   17       -6.095878
   18       -6.087192
   19       -6.073622
   20       -6.073622
   21       -6.069143
   22       -5.823634
   23       -5.637189
   24       -5.637189
   25       -2.168205
   26       -2.168205
   27       -1.795636
   28       -0.090879
   29       -0.090879
   30       -0.021766
   31       -0.021766
   32        0.315745
   33        0.315745
   34        0.546745
   35        1.454578
   36        1.454578
   37        3.620075
   38        4.473939
   39        4.820227
   40        5.018596
   41        5.018596
   42        5.175927
   43        5.175927
   44        5.848024
   45        6.932132
   46        6.932132
   47        9.054035
   48        9.054231
 
  0.5000000E+00  0.0000000E+00  0.0000000E+00  0.4687500E-01
    1       -8.816987
    2       -8.816987
    3       -8.603195
    4       -8.603195
    5       -6.242448
    6       -6.242448
    7       -6.242448
    8       -6.242448
    9       -6.206053
   10       -6.206053
   11       -6.198100
   12       -6.198100
   13       -6.161622
   14       -6.161622
   15       -6.114524
   16       -6.114524
   17       -6.089083
   18       -6.089083
   19       -6.078168
   20       -6.078168
   21       -6.058041
   22       -6.058041
   23       -5.606323
   24       -5.606323
   25       -2.105099
   26       -2.105099
   27       -0.767939
   28       -0.767939
   29       -0.296786
   30       -0.296786
   31       -0.155783
   32       -0.155783
   33        0.824394
   34        0.824394
   35        0.824394
   36        0.824394
   37        4.593496
   38        4.593496
   39        5.167601
   40        5.167601
   41        5.803653
   42        5.803653
   43        6.477456
   44        6.477456
   45        7.260045
   46        7.260045
   47        8.100378
   48        8.100453
 
  0.2500000E+00  0.2500000E+00  0.0000000E+00  0.1875000E+00
    1       -8.919274
    2       -8.654212
    3       -8.654212
    4       -8.611486
    5       -6.286621
    6       -6.276048
    7       -6.210806
    8       -6.210409
    9       -6.210409
   10       -6.205728
   11       -6.205728
   12       -6.195325
   13       -6.192623
   14       -6.136883
   15       -6.136883
   16       -6.127001
   17       -6.096389
   18       -6.085861
   19       -6.079083
   20       -6.074625
   21       -6.074625
   22       -5.769107
   23       -5.769107
   24       -5.635531
   25       -2.125073
   26       -1.870813
   27       -1.870813
   28       -0.493646
   29       -0.171949
   30        0.006872
   31        0.006872
   32        0.339966
   33        0.339966
   34        0.412776
   35        1.102844
   36        1.614625
   37        3.880948
   38        4.696758
   39        5.026555
   40        5.026555
   41        5.386198
   42        5.386198
   43        6.210659
   44        6.261263
   45        6.721269
   46        7.174525
   47        7.795512
   48        7.795512
 
  0.5000000E+00  0.2500000E+00  0.0000000E+00  0.1875000E+00
    1       -8.784187
    2       -8.784187
    3       -8.632910
    4       -8.632910
    5       -6.253172
    6       -6.253172
    7       -6.243419
    8       -6.243419
    9       -6.220677
   10       -6.220677
   11       -6.209823
   12       -6.209823
   13       -6.124827
   14       -6.124827
   15       -6.109834
   16       -6.109834
   17       -6.088404
   18       -6.088404
   19       -6.082450
   20       -6.082450
   21       -6.004153
   22       -6.004153
   23       -5.675559
   24       -5.675559
   25       -2.017884
   26       -2.017884
   27       -1.132973
   28       -1.132973
   29       -0.443218
   30       -0.443218
   31        0.452884
   32        0.452884
   33        0.465217
   34        0.465217
   35        1.058707
   36        1.058707
   37        4.698899
   38        4.698899
   39        5.278428
   40        5.278428
   41        5.810676
   42        5.810676
   43        6.724410
   44        6.724410
   45        7.147316
   46        7.147316
   47        7.292738
   48        7.292738
 
  0.5000000E+00  0.5000000E+00  0.0000000E+00  0.4687500E-01
    1       -8.706980
    2       -8.706980
    3       -8.706980
    4       -8.706980
    5       -6.240449
    6       -6.240449
    7       -6.240449
    8       -6.240449
    9       -6.237968
   10       -6.237968
   11       -6.237968
   12       -6.237968
   13       -6.096754
   14       -6.096754
   15       -6.096754
   16       -6.096754
   17       -6.095301
   18       -6.095301
   19       -6.095301
   20       -6.095301
   21       -5.843970
   22       -5.843970
   23       -5.843970
   24       -5.843970
   25       -1.685836
   26       -1.685836
   27       -1.685836
   28       -1.685836
   29       -0.129394
   30       -0.129394
   31       -0.129394
   32       -0.129394
   33        1.069726
   34        1.069726
   35        1.069726
   36        1.069726
   37        4.778969
   38        4.778969
   39        4.778969
   40        4.778969
   41        6.971844
   42        6.971844
   43        6.971844
   44        6.971844
   45        7.334512
   46        7.334512
   47        7.334512
   48        7.334512
 
  0.2500000E+00  0.2500000E+00  0.2500000E+00  0.1250000E+00
    1       -8.872123
    2       -8.653981
    3       -8.653981
    4       -8.653981
    5       -6.276475
    6       -6.276475
    7       -6.225307
    8       -6.225307
    9       -6.225307
   10       -6.211403
   11       -6.211403
   12       -6.211403
   13       -6.126565
   14       -6.122107
   15       -6.122107
   16       -6.122107
   17       -6.090981
   18       -6.090981
   19       -6.077386
   20       -6.077386
   21       -6.077386
   22       -5.738249
   23       -5.738249
   24       -5.738249
   25       -2.006291
   26       -2.006291
   27       -2.006291
   28       -0.780653
   29       -0.075155
   30       -0.075155
   31       -0.075155
   32        0.562689
   33        0.562689
   34        0.562689
   35        1.404497
   36        1.404497
   37        3.653573
   38        4.710716
   39        4.710716
   40        4.710716
   41        6.213390
   42        6.213390
   43        6.213390
   44        6.928990
   45        6.928990
   46        7.026317
   47        7.907173
   48        7.907173
 
  0.5000000E+00  0.2500000E+00  0.2500000E+00  0.1875000E+00
    1       -8.760702
    2       -8.760702
    3       -8.653750
    4       -8.653750
    5       -6.256450
    6       -6.256450
    7       -6.247848
    8       -6.247848
    9       -6.232490
   10       -6.232490
   11       -6.222767
   12       -6.222767
   13       -6.107669
   14       -6.107669
   15       -6.102645
   16       -6.102645
   17       -6.085828
   18       -6.085828
   19       -6.081026
   20       -6.081026
   21       -5.949927
   22       -5.949927
   23       -5.707741
   24       -5.707741
   25       -2.133168
   26       -2.133168
   27       -1.551178
   28       -1.551178
   29       -0.071164
   30       -0.071164
   31        0.663388
   32        0.663388
   33        0.834011
   34        0.834011
   35        0.954746
   36        0.954746
   37        4.232863
   38        4.232863
   39        4.866997
   40        4.866997
   41        6.416095
   42        6.416095
   43        6.439846
   44        6.439846
   45        7.528645
   46        7.528645
   47        7.629886
   48        7.629935
 
  0.5000000E+00  0.5000000E+00  0.2500000E+00  0.9375000E-01
    1       -8.705896
    2       -8.705896
    3       -8.705896
    4       -8.705896
    5       -6.247331
    6       -6.247331
    7       -6.247331
    8       -6.247331
    9       -6.246476
   10       -6.246476
   11       -6.246476
   12       -6.246476
   13       -6.089779
   14       -6.089779
   15       -6.089779
   16       -6.089779
   17       -6.088587
   18       -6.088587
   19       -6.088587
   20       -6.088587
   21       -5.816633
   22       -5.816633
   23       -5.816633
   24       -5.816633
   25       -2.039161
   26       -2.039161
   27       -2.039161
   28       -2.039161
   29        0.479069
   30        0.479069
   31        0.479069
   32        0.479069
   33        1.083031
   34        1.083031
   35        1.083031
   36        1.083031
   37        4.179615
   38        4.179615
   39        4.179615
   40        4.179615
   41        6.775183
   42        6.775183
   43        6.775183
   44        6.775183
   45        7.236251
   46        7.236251
   47        7.236251
   48        7.236251
 
  0.5000000E+00  0.5000000E+00  0.5000000E+00  0.1562500E-01
    1       -8.704795
    2       -8.704795
    3       -8.704795
    4       -8.704795
    5       -6.253653
    6       -6.253653
    7       -6.253653
    8       -6.253653
    9       -6.253653
   10       -6.253653
   11       -6.253653
   12       -6.253653
   13       -6.083367
   14       -6.083367
   15       -6.083367
   16       -6.083367
   17       -6.083367
   18       -6.083367
   19       -6.083367
   20       -6.083367
   21       -5.788022
   22       -5.788022
   23       -5.788022
   24       -5.788022
   25       -2.289274
   26       -2.289274
   27       -2.289274
   28       -2.289274
   29        1.096543
   30        1.096543
   31        1.096543
   32        1.096543
   33        1.096543
   34        1.096543
   35        1.096543
   36        1.096543
   37        3.530732
   38        3.530732
   39        3.530732
   40        3.530732
   41        6.986343
   42        6.986343
   43        6.986343
   44        6.986343
   45        6.986343
   46        6.986343
   47        6.986343
   48        6.986343
