PROCAR new format
# of k-points:   10         # of bands:  48         # of ions:   8

 k-point    1 :    0.00000000 0.00000000 0.00000000     weight = 0.01562500

band   1 # energy   -9.04255315 # occ.  2.00000000
 
ion      s      p      d    tot
  1  0.013  0.000  0.000  0.013
  2  0.013  0.000  0.000  0.013
  3  0.013  0.000  0.000  0.013
  4  0.013  0.000  0.000  0.013
  5  0.145  0.000  0.000  0.145
  6  0.145  0.000  0.000  0.145
  7  0.145  0.000  0.000  0.145
  8  0.145  0.000  0.000  0.145
tot  0.633  0.000  0.000  0.633
 
band   2 # energy   -8.60188502 # occ.  2.00000000
 
ion      s      p      d    tot
  1  0.000  0.003  0.033  0.035
  2  0.000  0.003  0.033  0.035
  3  0.000  0.003  0.033  0.035
  4  0.000  0.003  0.033  0.035
  5  0.071  0.000  0.000  0.071
  6  0.100  0.000  0.000  0.100
  7  0.403  0.000  0.000  0.403
  8  0.006  0.000  0.000  0.006
tot  0.580  0.011  0.130  0.722
 
band   3 # energy   -8.60188502 # occ.  2.00000000
 
ion      s      p      d    tot
  1  0.000  0.003  0.033  0.035
  2  0.000  0.003  0.033  0.035
  3  0.000  0.003  0.033  0.035
  4  0.000  0.003  0.033  0.035
  5  0.353  0.000  0.000  0.353
  6  0.079  0.000  0.000  0.079
  7  0.011  0.000  0.000  0.011
  8  0.137  0.000  0.000  0.137
tot  0.580  0.011  0.130  0.722
 
band   4 # energy   -8.60188502 # occ.  2.00000000
 
ion      s      p      d    tot
  1  0.000  0.003  0.033  0.035
  2  0.000  0.003  0.033  0.035
  3  0.000  0.003  0.033  0.035
  4  0.000  0.003  0.033  0.035
  5  0.012  0.000  0.000  0.012
  6  0.256  0.000  0.000  0.256
  7  0.021  0.000  0.000  0.021
  8  0.292  0.000  0.000  0.292
tot  0.580  0.011  0.130  0.722
 
band   5 # energy   -6.30586606 # occ.  2.00000000
 
ion      s      p      d    tot
  1  0.000  0.000  0.228  0.228
  2  0.000  0.000  0.228  0.228
  3  0.000  0.000  0.228  0.228
  4  0.000  0.000  0.228  0.228
  5  0.000  0.004  0.000  0.004
  6  0.000  0.004  0.000  0.004
  7  0.000  0.004  0.000  0.004
  8  0.000  0.004  0.000  0.004
tot  0.000  0.017  0.911  0.928
 
band   6 # energy   -6.30586606 # occ.  2.00000000
 
ion      s      p      d    tot
  1  0.000  0.000  0.228  0.228
  2  0.000  0.000  0.228  0.228
  3  0.000  0.000  0.228  0.228
  4  0.000  0.000  0.228  0.228
  5  0.000  0.004  0.000  0.004
  6  0.000  0.004  0.000  0.004
  7  0.000  0.004  0.000  0.004
  8  0.000  0.004  0.000  0.004
tot  0.000  0.017  0.911  0.928
 
band   7 # energy   -6.30586606 # occ.  2.00000000
 
ion      s      p      d    tot
  1  0.000  0.000  0.228  0.228
  2  0.000  0.000  0.228  0.228
  3  0.000  0.000  0.228  0.228
  4  0.000  0.000  0.228  0.228
  5  0.000  0.004  0.000  0.004
  6  0.000  0.004  0.000  0.004
  7  0.000  0.004  0.000  0.004
  8  0.000  0.004  0.000  0.004
tot  0.000  0.017  0.911  0.928
 
band   8 # energy   -6.17255503 # occ.  2.00000000
 
ion      s      p      d    tot
  1  0.000  0.000  0.423  0.423
  2  0.000  0.000  0.076  0.076
  3  0.000  0.000  0.045  0.045
  4  0.000  0.000  0.393  0.393
  5  0.000  0.001  0.000  0.002
  6  0.000  0.002  0.000  0.003
  7  0.000  0.001  0.000  0.001
  8  0.000  0.002  0.000  0.003
tot  0.000  0.008  0.939  0.946
 
band   9 # energy   -6.17255503 # occ.  2.00000000
 
ion      s      p      d    tot
  1  0.000  0.000  0.162  0.162
  2  0.000  0.000  0.334  0.334
  3  0.000  0.000  0.289  0.289
  4  0.000  0.000  0.152  0.152
  5  0.000  0.001  0.000  0.001
  6  0.000  0.002  0.000  0.002
  7  0.000  0.002  0.000  0.002
  8  0.000  0.002  0.000  0.003
tot  0.000  0.008  0.939  0.946
 
band  10 # energy   -6.17255503 # occ.  2.00000000
 
ion      s      p      d    tot
  1  0.000  0.000  0.122  0.122
  2  0.000  0.000  0.197  0.197
  3  0.000  0.000  0.279  0.279
  4  0.000  0.000  0.339  0.339
  5  0.000  0.002  0.000  0.003
  6  0.000  0.002  0.000  0.003
  7  0.000  0.001  0.000  0.001
  8  0.000  0.001  0.000  0.001
tot  0.000  0.008  0.939  0.946
 
band  11 # energy   -6.17255503 # occ.  2.00000000
 
ion      s      p      d    tot
  1  0.000  0.000  0.224  0.224
  2  0.000  0.000  0.266  0.266
  3  0.000  0.000  0.323  0.323
  4  0.000  0.000  0.124  0.124
  5  0.000  0.002  0.000  0.002
  6  0.000  0.002  0.000  0.002
  7  0.000  0.003  0.000  0.004
  8  0.000  0.000  0.000  0.000
tot  0.000  0.008  0.939  0.946
 
band  12 # energy   -6.17255503 # occ.  2.00000000
 
ion      s      p      d    tot
  1  0.000  0.000  0.294  0.294
  2  0.000  0.000  0.243  0.243
  3  0.000  0.000  0.198  0.198
  4  0.000  0.000  0.203  0.203
  5  0.000  0.002  0.000  0.002
  6  0.000  0.001  0.000  0.002
  7  0.000  0.002  0.000  0.003
  8  0.000  0.002  0.000  0.002
tot  0.000  0.008  0.939  0.946
 
band  13 # energy   -6.17255503 # occ.  2.00000000
 
ion      s      p      d    tot
  1  0.000  0.000  0.181  0.181
  2  0.000  0.000  0.290  0.290
  3  0.000  0.000  0.272  0.272
  4  0.000  0.000  0.195  0.195
  5  0.000  0.002  0.000  0.003
  6  0.000  0.001  0.000  0.001
  7  0.000  0.001  0.000  0.001
  8  0.000  0.003  0.000  0.003
tot  0.000  0.008  0.939  0.946
 
band  14 # energy   -6.17003847 # occ.  2.00000000
 
ion      s      p      d    tot
  1  0.000  0.000  0.279  0.279
  2  0.000  0.000  0.178  0.178
  3  0.000  0.000  0.256  0.256
  4  0.000  0.000  0.209  0.210
  5  0.000  0.001  0.000  0.002
  6  0.000  0.001  0.000  0.002
  7  0.000  0.001  0.000  0.002
  8  0.000  0.001  0.000  0.002
tot  0.001  0.006  0.923  0.930
 
band  15 # energy   -6.17003847 # occ.  2.00000000
 
ion      s      p      d    tot
  1  0.000  0.000  0.198  0.198
  2  0.000  0.000  0.269  0.270
  3  0.000  0.000  0.190  0.190
  4  0.000  0.000  0.265  0.266
  5  0.000  0.001  0.000  0.002
  6  0.000  0.001  0.000  0.002
  7  0.000  0.001  0.000  0.002
  8  0.000  0.001  0.000  0.002
tot  0.001  0.006  0.923  0.930
 
band  16 # energy   -6.17003847 # occ.  2.00000000
 
ion      s      p      d    tot
  1  0.000  0.000  0.215  0.215
  2  0.000  0.000  0.244  0.245
  3  0.000  0.000  0.246  0.247
  4  0.000  0.000  0.217  0.217
  5  0.000  0.001  0.000  0.002
  6  0.000  0.001  0.000  0.002
  7  0.000  0.001  0.000  0.002
  8  0.000  0.001  0.000  0.002
tot  0.001  0.006  0.923  0.930
 
band  17 # energy   -6.09091044 # occ.  2.00000000
 
ion      s      p      d    tot
  1  0.000  0.000  0.237  0.237
  2  0.000  0.000  0.237  0.237
  3  0.000  0.000  0.237  0.237
  4  0.000  0.000  0.237  0.237
  5  0.000  0.000  0.000  0.000
  6  0.000  0.000  0.000  0.000
  7  0.000  0.000  0.000  0.000
  8  0.000  0.000  0.000  0.000
tot  0.000  0.000  0.948  0.948
 
band  18 # energy   -6.09091044 # occ.  2.00000000
 
ion      s      p      d    tot
  1  0.000  0.000  0.237  0.237
  2  0.000  0.000  0.237  0.237
  3  0.000  0.000  0.237  0.237
  4  0.000  0.000  0.237  0.237
  5  0.000  0.000  0.000  0.000
  6  0.000  0.000  0.000  0.000
  7  0.000  0.000  0.000  0.000
  8  0.000  0.000  0.000  0.000
tot  0.000  0.000  0.948  0.948
 
band  19 # energy   -6.06540673 # occ.  2.00000000
 
ion      s      p      d    tot
  1  0.000  0.000  0.349  0.349
  2  0.000  0.000  0.117  0.117
  3  0.000  0.000  0.216  0.216
  4  0.000  0.000  0.269  0.269
  5  0.000  0.000  0.000  0.000
  6  0.000  0.000  0.000  0.000
  7  0.000  0.000  0.000  0.000
  8  0.000  0.000  0.000  0.000
tot  0.000  0.000  0.951  0.951
 
band  20 # energy   -6.06540673 # occ.  2.00000000
 
ion      s      p      d    tot
  1  0.000  0.000  0.125  0.125
  2  0.000  0.000  0.318  0.318
  3  0.000  0.000  0.325  0.325
  4  0.000  0.000  0.183  0.183
  5  0.000  0.000  0.000  0.000
  6  0.000  0.000  0.000  0.000
  7  0.000  0.000  0.000  0.000
  8  0.000  0.000  0.000  0.000
tot  0.000  0.000  0.951  0.951
 
band  21 # energy   -6.06540673 # occ.  2.00000000
 
ion      s      p      d    tot
  1  0.000  0.000  0.239  0.239
  2  0.000  0.000  0.279  0.279
  3  0.000  0.000  0.172  0.172
  4  0.000  0.000  0.261  0.261
  5  0.000  0.000  0.000  0.000
  6  0.000  0.000  0.000  0.000
  7  0.000  0.000  0.000  0.000
  8  0.000  0.000  0.000  0.000
tot  0.000  0.000  0.951  0.951
 
band  22 # energy   -5.66954991 # occ.  2.00000000
 
ion      s      p      d    tot
  1  0.000  0.001  0.204  0.205
  2  0.000  0.001  0.204  0.205
  3  0.000  0.001  0.204  0.205
  4  0.000  0.001  0.204  0.205
  5  0.002  0.000  0.000  0.002
  6  0.056  0.000  0.000  0.056
  7  0.009  0.000  0.000  0.009
  8  0.035  0.000  0.000  0.035
tot  0.101  0.004  0.818  0.923
 
band  23 # energy   -5.66954991 # occ.  2.00000000
 
ion      s      p      d    tot
  1  0.000  0.001  0.204  0.205
  2  0.000  0.001  0.204  0.205
  3  0.000  0.001  0.204  0.205
  4  0.000  0.001  0.204  0.205
  5  0.032  0.000  0.000  0.032
  6  0.007  0.000  0.000  0.007
  7  0.050  0.000  0.000  0.050
  8  0.012  0.000  0.000  0.012
tot  0.101  0.004  0.818  0.923
 
band  24 # energy   -5.66954991 # occ.  2.00000000
 
ion      s      p      d    tot
  1  0.000  0.001  0.204  0.205
  2  0.000  0.001  0.204  0.205
  3  0.000  0.001  0.204  0.205
  4  0.000  0.001  0.204  0.205
  5  0.042  0.000  0.000  0.042
  6  0.013  0.000  0.000  0.013
  7  0.017  0.000  0.000  0.017
  8  0.029  0.000  0.000  0.029
tot  0.101  0.004  0.818  0.923
 
band  25 # energy   -2.22338218 # occ.  2.00000000
 
ion      s      p      d    tot
  1  0.098  0.000  0.004  0.102
  2  0.032  0.000  0.007  0.039
  3  0.086  0.000  0.004  0.091
  4  0.023  0.000  0.007  0.030
  5  0.000  0.053  0.001  0.054
  6  0.000  0.053  0.001  0.054
  7  0.000  0.053  0.001  0.054
  8  0.000  0.053  0.001  0.054
tot  0.240  0.212  0.025  0.477
 
band  26 # energy   -2.22338218 # occ.  2.00000000
 
ion      s      p      d    tot
  1  0.079  0.000  0.005  0.084
  2  0.001  0.000  0.008  0.009
  3  0.033  0.000  0.007  0.040
  4  0.126  0.000  0.002  0.129
  5  0.000  0.053  0.001  0.054
  6  0.000  0.053  0.001  0.054
  7  0.000  0.053  0.001  0.054
  8  0.000  0.053  0.001  0.054
tot  0.240  0.212  0.025  0.477
 
band  27 # energy   -2.22338218 # occ.  2.00000000
 
ion      s      p      d    tot
  1  0.003  0.000  0.008  0.011
  2  0.147  0.000  0.002  0.148
  3  0.060  0.000  0.006  0.065
  4  0.030  0.000  0.007  0.037
  5  0.000  0.053  0.001  0.054
  6  0.000  0.053  0.001  0.054
  7  0.000  0.053  0.001  0.054
  8  0.000  0.053  0.001  0.054
tot  0.240  0.212  0.025  0.477
 
band  28 # energy    0.12712666 # occ.  2.00000000
 
ion      s      p      d    tot
  1  0.000  0.006  0.001  0.007
  2  0.000  0.028  0.006  0.034
  3  0.000  0.023  0.005  0.027
  4  0.000  0.016  0.003  0.019
  5  0.000  0.176  0.000  0.176
  6  0.000  0.043  0.000  0.043
  7  0.000  0.094  0.000  0.094
  8  0.000  0.061  0.000  0.061
tot  0.000  0.446  0.016  0.462
 
band  29 # energy    0.12712666 # occ.  2.00000000
 
ion      s      p      d    tot
  1  0.000  0.014  0.003  0.017
  2  0.000  0.015  0.003  0.018
  3  0.000  0.019  0.004  0.023
  4  0.000  0.025  0.005  0.030
  5  0.000  0.048  0.000  0.048
  6  0.000  0.111  0.000  0.112
  7  0.000  0.153  0.000  0.153
  8  0.000  0.062  0.000  0.062
tot  0.000  0.446  0.016  0.462
 
band  30 # energy    0.12712666 # occ.  2.00000000
 
ion      s      p      d    tot
  1  0.000  0.020  0.004  0.025
  2  0.000  0.011  0.002  0.013
  3  0.000  0.023  0.005  0.028
  4  0.000  0.018  0.004  0.022
  5  0.000  0.056  0.000  0.056
  6  0.000  0.104  0.000  0.105
  7  0.000  0.067  0.000  0.067
  8  0.000  0.146  0.000  0.146
tot  0.000  0.446  0.016  0.462
 
band  31 # energy    0.12712666 # occ.  2.00000000
 
ion      s      p      d    tot
  1  0.000  0.031  0.007  0.038
  2  0.000  0.022  0.005  0.027
  3  0.000  0.007  0.001  0.009
  4  0.000  0.012  0.003  0.015
  5  0.000  0.034  0.000  0.034
  6  0.000  0.099  0.000  0.099
  7  0.000  0.098  0.000  0.098
  8  0.000  0.143  0.000  0.144
tot  0.000  0.446  0.016  0.462
 
band  32 # energy    0.12712666 # occ.  2.00000000
 
ion      s      p      d    tot
  1  0.000  0.012  0.003  0.014
  2  0.000  0.023  0.005  0.028
  3  0.000  0.014  0.003  0.017
  4  0.000  0.024  0.005  0.029
  5  0.000  0.098  0.000  0.098
  6  0.000  0.128  0.000  0.129
  7  0.000  0.103  0.000  0.103
  8  0.000  0.044  0.000  0.044
tot  0.000  0.446  0.016  0.462
 
band  33 # energy    0.12712666 # occ.  2.00000000
 
ion      s      p      d    tot
  1  0.000  0.025  0.005  0.031
  2  0.000  0.009  0.002  0.011
  3  0.000  0.024  0.005  0.029
  4  0.000  0.014  0.003  0.017
  5  0.000  0.149  0.000  0.149
  6  0.000  0.075  0.000  0.075
  7  0.000  0.045  0.000  0.045
  8  0.000  0.105  0.000  0.105
tot  0.000  0.446  0.016  0.462
 
band  34 # energy    1.78007689 # occ.  2.00000000
 
ion      s      p      d    tot
  1  0.000  0.006  0.017  0.023
  2  0.000  0.006  0.017  0.023
  3  0.000  0.006  0.017  0.023
  4  0.000  0.006  0.017  0.023
  5  0.000  0.122  0.000  0.122
  6  0.000  0.122  0.000  0.122
  7  0.000  0.122  0.000  0.122
  8  0.000  0.122  0.000  0.122
tot  0.000  0.513  0.068  0.581
 
band  35 # energy    1.78007689 # occ.  2.00000000
 
ion      s      p      d    tot
  1  0.000  0.006  0.017  0.023
  2  0.000  0.006  0.017  0.023
  3  0.000  0.006  0.017  0.023
  4  0.000  0.006  0.017  0.023
  5  0.000  0.122  0.000  0.122
  6  0.000  0.122  0.000  0.122
  7  0.000  0.122  0.000  0.122
  8  0.000  0.122  0.000  0.122
tot  0.000  0.513  0.068  0.581
 
band  36 # energy    1.78007689 # occ.  2.00000000
 
ion      s      p      d    tot
  1  0.000  0.006  0.017  0.023
  2  0.000  0.006  0.017  0.023
  3  0.000  0.006  0.017  0.023
  4  0.000  0.006  0.017  0.023
  5  0.000  0.122  0.000  0.122
  6  0.000  0.122  0.000  0.122
  7  0.000  0.122  0.000  0.122
  8  0.000  0.122  0.000  0.122
tot  0.000  0.513  0.068  0.581
 
band  37 # energy    2.35502517 # occ.  0.00000000
 
ion      s      p      d    tot
  1  0.082  0.000  0.000  0.082
  2  0.082  0.000  0.000  0.082
  3  0.082  0.000  0.000  0.082
  4  0.082  0.000  0.000  0.082
  5  0.055  0.000  0.000  0.055
  6  0.055  0.000  0.000  0.055
  7  0.055  0.000  0.000  0.055
  8  0.055  0.000  0.000  0.055
tot  0.547  0.000  0.000  0.547
 
band  38 # energy    4.44767868 # occ.  0.00000000
 
ion      s      p      d    tot
  1  0.002  0.000  0.012  0.014
  2  0.130  0.000  0.002  0.132
  3  0.056  0.000  0.008  0.064
  4  0.027  0.000  0.010  0.037
  5  0.000  0.030  0.011  0.041
  6  0.000  0.030  0.011  0.041
  7  0.000  0.030  0.011  0.041
  8  0.000  0.030  0.011  0.041
tot  0.215  0.120  0.078  0.412
 
band  39 # energy    4.44767868 # occ.  0.00000000
 
ion      s      p      d    tot
  1  0.118  0.000  0.003  0.121
  2  0.009  0.000  0.011  0.020
  3  0.056  0.000  0.008  0.063
  4  0.032  0.000  0.010  0.042
  5  0.000  0.030  0.011  0.041
  6  0.000  0.030  0.011  0.041
  7  0.000  0.030  0.011  0.041
  8  0.000  0.030  0.011  0.041
tot  0.215  0.120  0.078  0.412
 
band  40 # energy    4.44767868 # occ.  0.00000000
 
ion      s      p      d    tot
  1  0.041  0.000  0.009  0.050
  2  0.022  0.000  0.010  0.032
  3  0.050  0.000  0.008  0.058
  4  0.102  0.000  0.004  0.106
  5  0.000  0.030  0.011  0.041
  6  0.000  0.030  0.011  0.041
  7  0.000  0.030  0.011  0.041
  8  0.000  0.030  0.011  0.041
tot  0.215  0.120  0.078  0.412
 
band  41 # energy    4.52393866 # occ.  0.00000000
 
ion      s      p      d    tot
  1  0.000  0.025  0.007  0.032
  2  0.000  0.025  0.007  0.032
  3  0.000  0.025  0.007  0.032
  4  0.000  0.025  0.007  0.032
  5  0.011  0.000  0.009  0.020
  6  0.016  0.000  0.007  0.023
  7  0.009  0.000  0.010  0.019
  8  0.009  0.000  0.010  0.019
tot  0.046  0.099  0.064  0.210
 
band  42 # energy    4.52393866 # occ.  0.00000000
 
ion      s      p      d    tot
  1  0.000  0.025  0.007  0.032
  2  0.000  0.025  0.007  0.032
  3  0.000  0.025  0.007  0.032
  4  0.000  0.025  0.007  0.032
  5  0.011  0.000  0.009  0.020
  6  0.001  0.000  0.013  0.014
  7  0.024  0.000  0.004  0.028
  8  0.010  0.000  0.009  0.020
tot  0.046  0.099  0.064  0.210
 
band  43 # energy    4.52393866 # occ.  0.00000000
 
ion      s      p      d    tot
  1  0.000  0.025  0.007  0.032
  2  0.000  0.025  0.007  0.032
  3  0.000  0.025  0.007  0.032
  4  0.000  0.025  0.007  0.032
  5  0.013  0.000  0.008  0.021
  6  0.017  0.000  0.007  0.024
  7  0.001  0.000  0.013  0.014
  8  0.015  0.000  0.007  0.023
tot  0.046  0.099  0.064  0.210
 
band  44 # energy    6.41861398 # occ.  0.00000000
 
ion      s      p      d    tot
  1  0.000  0.059  0.000  0.059
  2  0.000  0.059  0.000  0.059
  3  0.000  0.059  0.000  0.059
  4  0.000  0.059  0.000  0.059
  5  0.000  0.002  0.021  0.023
  6  0.000  0.002  0.021  0.023
  7  0.000  0.002  0.021  0.023
  8  0.000  0.002  0.021  0.023
tot  0.000  0.243  0.085  0.328
 
band  45 # energy    6.41861398 # occ.  0.00000000
 
ion      s      p      d    tot
  1  0.000  0.059  0.000  0.059
  2  0.000  0.059  0.000  0.059
  3  0.000  0.059  0.000  0.059
  4  0.000  0.059  0.000  0.059
  5  0.000  0.002  0.021  0.023
  6  0.000  0.002  0.021  0.023
  7  0.000  0.002  0.021  0.023
  8  0.000  0.002  0.021  0.023
tot  0.000  0.243  0.085  0.328
 
band  46 # energy    6.41861398 # occ.  0.00000000
 
ion      s      p      d    tot
  1  0.000  0.059  0.000  0.059
  2  0.000  0.059  0.000  0.059
  3  0.000  0.059  0.000  0.059
  4  0.000  0.059  0.000  0.059
  5  0.000  0.002  0.021  0.023
  6  0.000  0.002  0.021  0.023
  7  0.000  0.002  0.021  0.023
  8  0.000  0.002  0.021  0.023
tot  0.000  0.243  0.085  0.328
 
band  47 # energy    9.15153540 # occ.  0.00000000
 
ion      s      p      d    tot
  1  0.055  0.000  0.000  0.055
  2  0.055  0.000  0.000  0.055
  3  0.055  0.000  0.000  0.055
  4  0.055  0.000  0.000  0.055
  5  0.002  0.000  0.000  0.002
  6  0.002  0.000  0.000  0.002
  7  0.002  0.000  0.000  0.002
  8  0.002  0.000  0.000  0.002
tot  0.229  0.000  0.000  0.229
 
band  48 # energy   10.28081033 # occ.  0.00000000
 
ion      s      p      d    tot
  1  0.001  0.000  0.003  0.004
  2  0.042  0.000  0.001  0.043
  3  0.018  0.000  0.002  0.020
  4  0.009  0.000  0.002  0.011
  5  0.000  0.081  0.005  0.085
  6  0.000  0.081  0.005  0.085
  7  0.000  0.081  0.005  0.085
  8  0.000  0.081  0.005  0.085
tot  0.070  0.323  0.026  0.419
 

 k-point    2 :    0.25000000 0.00000000 0.00000000     weight = 0.09375000

band   1 # energy   -8.97612623 # occ.  2.00000000
 
ion      s      p      d    tot
  1  0.012  0.000  0.003  0.015
  2  0.012  0.000  0.003  0.015
  3  0.012  0.000  0.003  0.015
  4  0.012  0.000  0.003  0.015
  5  0.146  0.000  0.000  0.146
  6  0.146  0.000  0.000  0.146
  7  0.146  0.000  0.000  0.146
  8  0.146  0.000  0.000  0.146
tot  0.629  0.002  0.013  0.644
 
band   2 # energy   -8.66303039 # occ.  2.00000000
 
ion      s      p      d    tot
  1  0.002  0.002  0.026  0.031
  2  0.002  0.002  0.026  0.031
  3  0.002  0.002  0.026  0.031
  4  0.002  0.002  0.026  0.031
  5  0.146  0.000  0.000  0.146
  6  0.146  0.000  0.000  0.146
  7  0.146  0.000  0.000  0.146
  8  0.146  0.000  0.000  0.146
tot  0.593  0.010  0.105  0.707
 
band   3 # energy   -8.60252851 # occ.  2.00000000
 
ion      s      p      d    tot
  1  0.000  0.003  0.033  0.036
  2  0.000  0.003  0.033  0.036
  3  0.000  0.003  0.033  0.036
  4  0.000  0.003  0.033  0.036
  5  0.282  0.000  0.000  0.282
  6  0.008  0.000  0.000  0.008
  7  0.008  0.000  0.000  0.008
  8  0.282  0.000  0.000  0.282
tot  0.580  0.011  0.131  0.722
 
band   4 # energy   -8.60252851 # occ.  2.00000000
 
ion      s      p      d    tot
  1  0.000  0.003  0.033  0.036
  2  0.000  0.003  0.033  0.036
  3  0.000  0.003  0.033  0.036
  4  0.000  0.003  0.033  0.036
  5  0.008  0.000  0.000  0.008
  6  0.282  0.000  0.000  0.282
  7  0.282  0.000  0.000  0.282
  8  0.008  0.000  0.000  0.008
tot  0.580  0.011  0.131  0.722
 
band   5 # energy   -6.28790590 # occ.  2.00000000
 
ion      s      p      d    tot
  1  0.000  0.000  0.228  0.229
  2  0.000  0.000  0.228  0.229
  3  0.000  0.000  0.228  0.229
  4  0.000  0.000  0.228  0.229
  5  0.000  0.004  0.000  0.004
  6  0.000  0.004  0.000  0.004
  7  0.000  0.004  0.000  0.004
  8  0.000  0.004  0.000  0.004
tot  0.000  0.016  0.915  0.930
 
band   6 # energy   -6.28790590 # occ.  2.00000000
 
ion      s      p      d    tot
  1  0.000  0.000  0.228  0.229
  2  0.000  0.000  0.228  0.229
  3  0.000  0.000  0.228  0.229
  4  0.000  0.000  0.228  0.229
  5  0.000  0.004  0.000  0.004
  6  0.000  0.004  0.000  0.004
  7  0.000  0.004  0.000  0.004
  8  0.000  0.004  0.000  0.004
tot  0.000  0.016  0.915  0.930
 
band   7 # energy   -6.26148925 # occ.  2.00000000
 
ion      s      p      d    tot
  1  0.001  0.000  0.224  0.225
  2  0.001  0.000  0.224  0.225
  3  0.001  0.000  0.224  0.225
  4  0.001  0.000  0.224  0.225
  5  0.001  0.004  0.000  0.006
  6  0.001  0.004  0.000  0.006
  7  0.001  0.004  0.000  0.006
  8  0.001  0.004  0.000  0.006
tot  0.008  0.017  0.897  0.921
 
band   8 # energy   -6.19376799 # occ.  2.00000000
 
ion      s      p      d    tot
  1  0.000  0.000  0.233  0.233
  2  0.000  0.000  0.233  0.233
  3  0.000  0.000  0.233  0.233
  4  0.000  0.000  0.233  0.233
  5  0.000  0.002  0.000  0.002
  6  0.000  0.002  0.000  0.002
  7  0.000  0.002  0.000  0.002
  8  0.000  0.002  0.000  0.002
tot  0.000  0.009  0.934  0.943
 
band   9 # energy   -6.19376799 # occ.  2.00000000
 
ion      s      p      d    tot
  1  0.000  0.000  0.233  0.233
  2  0.000  0.000  0.233  0.233
  3  0.000  0.000  0.233  0.233
  4  0.000  0.000  0.233  0.233
  5  0.000  0.002  0.000  0.002
  6  0.000  0.002  0.000  0.002
  7  0.000  0.002  0.000  0.002
  8  0.000  0.002  0.000  0.002
tot  0.000  0.009  0.934  0.943
 
band  10 # energy   -6.19154444 # occ.  2.00000000
 
ion      s      p      d    tot
  1  0.000  0.000  0.229  0.230
  2  0.000  0.000  0.229  0.230
  3  0.000  0.000  0.234  0.234
  4  0.000  0.000  0.234  0.234
  5  0.000  0.002  0.000  0.003
  6  0.000  0.002  0.000  0.003
  7  0.000  0.002  0.000  0.003
  8  0.000  0.002  0.000  0.003
tot  0.000  0.010  0.927  0.938
 
band  11 # energy   -6.19154444 # occ.  2.00000000
 
ion      s      p      d    tot
  1  0.000  0.000  0.234  0.234
  2  0.000  0.000  0.234  0.234
  3  0.000  0.000  0.229  0.230
  4  0.000  0.000  0.229  0.230
  5  0.000  0.002  0.000  0.003
  6  0.000  0.002  0.000  0.003
  7  0.000  0.002  0.000  0.003
  8  0.000  0.002  0.000  0.003
tot  0.000  0.010  0.927  0.938
 
band  12 # energy   -6.19017348 # occ.  2.00000000
 
ion      s      p      d    tot
  1  0.000  0.000  0.234  0.234
  2  0.000  0.000  0.234  0.234
  3  0.000  0.000  0.234  0.234
  4  0.000  0.000  0.234  0.234
  5  0.000  0.003  0.001  0.004
  6  0.000  0.000  0.000  0.000
  7  0.000  0.000  0.000  0.000
  8  0.000  0.003  0.001  0.004
tot  0.000  0.007  0.936  0.943
 
band  13 # energy   -6.19017348 # occ.  2.00000000
 
ion      s      p      d    tot
  1  0.000  0.000  0.234  0.234
  2  0.000  0.000  0.234  0.234
  3  0.000  0.000  0.234  0.234
  4  0.000  0.000  0.234  0.234
  5  0.000  0.000  0.000  0.000
  6  0.000  0.003  0.001  0.004
  7  0.000  0.003  0.001  0.004
  8  0.000  0.000  0.000  0.000
tot  0.000  0.007  0.936  0.943
 
band  14 # energy   -6.16216631 # occ.  2.00000000
 
ion      s      p      d    tot
  1  0.000  0.000  0.231  0.231
  2  0.000  0.000  0.231  0.231
  3  0.000  0.000  0.231  0.231
  4  0.000  0.000  0.231  0.231
  5  0.000  0.002  0.000  0.002
  6  0.000  0.002  0.000  0.002
  7  0.000  0.002  0.000  0.002
  8  0.000  0.002  0.000  0.002
tot  0.002  0.006  0.922  0.930
 
band  15 # energy   -6.13969540 # occ.  2.00000000
 
ion      s      p      d    tot
  1  0.000  0.000  0.227  0.227
  2  0.000  0.000  0.227  0.227
  3  0.000  0.000  0.241  0.242
  4  0.000  0.000  0.241  0.242
  5  0.000  0.001  0.000  0.001
  6  0.000  0.001  0.000  0.001
  7  0.000  0.001  0.000  0.001
  8  0.000  0.001  0.000  0.001
tot  0.000  0.003  0.938  0.941
 
band  16 # energy   -6.13969540 # occ.  2.00000000
 
ion      s      p      d    tot
  1  0.000  0.000  0.241  0.242
  2  0.000  0.000  0.241  0.242
  3  0.000  0.000  0.227  0.227
  4  0.000  0.000  0.227  0.227
  5  0.000  0.001  0.000  0.001
  6  0.000  0.001  0.000  0.001
  7  0.000  0.001  0.000  0.001
  8  0.000  0.001  0.000  0.001
tot  0.000  0.003  0.938  0.941
 
band  17 # energy   -6.09587790 # occ.  2.00000000
 
ion      s      p      d    tot
  1  0.000  0.000  0.236  0.236
  2  0.000  0.000  0.236  0.236
  3  0.000  0.000  0.236  0.236
  4  0.000  0.000  0.236  0.236
  5  0.000  0.000  0.000  0.000
  6  0.000  0.000  0.000  0.000
  7  0.000  0.000  0.000  0.000
  8  0.000  0.000  0.000  0.000
tot  0.000  0.000  0.947  0.947
 
band  18 # energy   -6.08719168 # occ.  2.00000000
 
ion      s      p      d    tot
  1  0.000  0.000  0.237  0.237
  2  0.000  0.000  0.237  0.237
  3  0.000  0.000  0.237  0.237
  4  0.000  0.000  0.237  0.237
  5  0.000  0.000  0.000  0.000
  6  0.000  0.000  0.000  0.000
  7  0.000  0.000  0.000  0.000
  8  0.000  0.000  0.000  0.000
tot  0.000  0.000  0.949  0.949
 
band  19 # energy   -6.07362159 # occ.  2.00000000
 
ion      s      p      d    tot
  1  0.000  0.000  0.312  0.312
  2  0.000  0.000  0.312  0.312
  3  0.000  0.000  0.162  0.163
  4  0.000  0.000  0.162  0.163
  5  0.000  0.000  0.000  0.000
  6  0.000  0.000  0.000  0.000
  7  0.000  0.000  0.000  0.000
  8  0.000  0.000  0.000  0.000
tot  0.000  0.000  0.950  0.950
 
band  20 # energy   -6.07362159 # occ.  2.00000000
 
ion      s      p      d    tot
  1  0.000  0.000  0.162  0.163
  2  0.000  0.000  0.162  0.163
  3  0.000  0.000  0.312  0.312
  4  0.000  0.000  0.312  0.312
  5  0.000  0.000  0.000  0.000
  6  0.000  0.000  0.000  0.000
  7  0.000  0.000  0.000  0.000
  8  0.000  0.000  0.000  0.000
tot  0.000  0.000  0.950  0.950
 
band  21 # energy   -6.06914292 # occ.  2.00000000
 
ion      s      p      d    tot
  1  0.000  0.000  0.238  0.238
  2  0.000  0.000  0.238  0.238
  3  0.000  0.000  0.238  0.238
  4  0.000  0.000  0.238  0.238
  5  0.000  0.000  0.000  0.000
  6  0.000  0.000  0.000  0.000
  7  0.000  0.000  0.000  0.000
  8  0.000  0.000  0.000  0.000
tot  0.000  0.000  0.951  0.951
 
band  22 # energy   -5.82363371 # occ.  2.00000000
 
ion      s      p      d    tot
  1  0.002  0.000  0.208  0.210
  2  0.002  0.000  0.208  0.210
  3  0.002  0.000  0.208  0.210
  4  0.002  0.000  0.208  0.210
  5  0.017  0.001  0.000  0.019
  6  0.017  0.001  0.000  0.019
  7  0.017  0.001  0.000  0.019
  8  0.017  0.001  0.000  0.019
tot  0.076  0.007  0.832  0.914
 
band  23 # energy   -5.63718881 # occ.  2.00000000
 
ion      s      p      d    tot
  1  0.000  0.001  0.206  0.207
  2  0.000  0.001  0.206  0.207
  3  0.000  0.001  0.206  0.207
  4  0.000  0.001  0.206  0.207
  5  0.045  0.000  0.000  0.045
  6  0.006  0.000  0.000  0.006
  7  0.006  0.000  0.000  0.006
  8  0.045  0.000  0.000  0.045
tot  0.102  0.004  0.823  0.929
 
band  24 # energy   -5.63718881 # occ.  2.00000000
 
ion      s      p      d    tot
  1  0.000  0.001  0.206  0.207
  2  0.000  0.001  0.206  0.207
  3  0.000  0.001  0.206  0.207
  4  0.000  0.001  0.206  0.207
  5  0.006  0.000  0.000  0.006
  6  0.045  0.000  0.000  0.045
  7  0.045  0.000  0.000  0.045
  8  0.006  0.000  0.000  0.006
tot  0.102  0.004  0.823  0.929
 
band  25 # energy   -2.16820480 # occ.  2.00000000
 
ion      s      p      d    tot
  1  0.072  0.000  0.003  0.075
  2  0.072  0.000  0.003  0.075
  3  0.052  0.000  0.004  0.055
  4  0.052  0.000  0.004  0.055
  5  0.000  0.053  0.001  0.054
  6  0.000  0.053  0.001  0.054
  7  0.000  0.053  0.001  0.054
  8  0.000  0.053  0.001  0.054
tot  0.248  0.213  0.018  0.478
 
band  26 # energy   -2.16820480 # occ.  2.00000000
 
ion      s      p      d    tot
  1  0.052  0.000  0.004  0.055
  2  0.052  0.000  0.004  0.055
  3  0.072  0.000  0.003  0.075
  4  0.072  0.000  0.003  0.075
  5  0.000  0.053  0.001  0.054
  6  0.000  0.053  0.001  0.054
  7  0.000  0.053  0.001  0.054
  8  0.000  0.053  0.001  0.054
tot  0.248  0.213  0.018  0.478
 
band  27 # energy   -1.79563586 # occ.  2.00000000
 
ion      s      p      d    tot
  1  0.055  0.001  0.010  0.065
  2  0.055  0.001  0.010  0.065
  3  0.055  0.001  0.010  0.065
  4  0.055  0.001  0.010  0.065
  5  0.007  0.053  0.001  0.061
  6  0.007  0.053  0.001  0.061
  7  0.007  0.053  0.001  0.061
  8  0.007  0.053  0.001  0.061
tot  0.247  0.215  0.041  0.503
 
band  28 # energy   -0.09087924 # occ.  2.00000000
 
ion      s      p      d    tot
  1  0.001  0.026  0.007  0.033
  2  0.001  0.026  0.007  0.033
  3  0.000  0.007  0.006  0.013
  4  0.000  0.007  0.006  0.013
  5  0.000  0.088  0.000  0.088
  6  0.000  0.088  0.000  0.088
  7  0.000  0.088  0.000  0.088
  8  0.000  0.088  0.000  0.088
tot  0.003  0.416  0.026  0.445
 
band  29 # energy   -0.09087924 # occ.  2.00000000
 
ion      s      p      d    tot
  1  0.000  0.007  0.006  0.013
  2  0.000  0.007  0.006  0.013
  3  0.001  0.026  0.007  0.033
  4  0.001  0.026  0.007  0.033
  5  0.000  0.088  0.000  0.088
  6  0.000  0.088  0.000  0.088
  7  0.000  0.088  0.000  0.088
  8  0.000  0.088  0.000  0.088
tot  0.003  0.416  0.026  0.445
 
band  30 # energy   -0.02176619 # occ.  2.00000000
 
ion      s      p      d    tot
  1  0.000  0.019  0.003  0.022
  2  0.000  0.019  0.003  0.022
  3  0.000  0.019  0.003  0.022
  4  0.000  0.019  0.003  0.022
  5  0.000  0.070  0.000  0.070
  6  0.000  0.105  0.000  0.106
  7  0.000  0.105  0.000  0.106
  8  0.000  0.070  0.000  0.070
tot  0.000  0.426  0.013  0.439
 
band  31 # energy   -0.02176619 # occ.  2.00000000
 
ion      s      p      d    tot
  1  0.000  0.019  0.003  0.022
  2  0.000  0.019  0.003  0.022
  3  0.000  0.019  0.003  0.022
  4  0.000  0.019  0.003  0.022
  5  0.000  0.105  0.000  0.106
  6  0.000  0.070  0.000  0.070
  7  0.000  0.070  0.000  0.070
  8  0.000  0.105  0.000  0.106
tot  0.000  0.426  0.013  0.439
 
band  32 # energy    0.31574527 # occ.  2.00000000
 
ion      s      p      d    tot
  1  0.000  0.017  0.006  0.023