   2   2   1   0
  0.3405476E+02  0.4583961E-09  0.4583961E-09  0.4583961E-09  0.5000000E-15
  1.000000000000000E-004
  CAR 
 Name                                    
     49.96793364    -11.83313205  301      2.22661040      1.00000000
    -11.833  0.0000E+00  0.0000E+00
    -11.627  0.0000E+00  0.0000E+00
    -11.421  0.0000E+00  0.0000E+00
    -11.215  0.0000E+00  0.0000E+00
    -11.009  0.0000E+00  0.0000E+00
    -10.803  0.0000E+00  0.0000E+00
    -10.597  0.0000E+00  0.0000E+00
    -10.391  0.0000E+00  0.0000E+00
    -10.185  0.0000E+00  0.0000E+00
     -9.979  0.0000E+00  0.0000E+00
     -9.773  0.0000E+00  0.0000E+00
     -9.567  0.0000E+00  0.0000E+00
     -9.361  0.0000E+00  0.0000E+00
     -9.155  0.0000E+00  0.0000E+00
     -8.949  0.4502E-03  0.9275E-04
     -8.743  0.5475E-02  0.2517E-02
     -8.537  0.3189E-01  0.1518E-01
     -8.331  0.0000E+00  0.2000E-01
     -8.125  0.0000E+00  0.2000E-01
     -7.919  0.0000E+00  0.2000E-01
     -7.713  0.0000E+00  0.2000E-01
     -7.507  0.0000E+00  0.2000E-01
     -7.301  0.0000E+00  0.2000E-01
     -7.095  0.0000E+00  0.2000E-01
     -6.889  0.0000E+00  0.2000E-01
     -6.683  0.0000E+00  0.2000E-01
     -6.477  0.0000E+00  0.2000E-01
     -6.271  0.0000E+00  0.2000E-01
     -6.065  0.7864E-02  0.2162E-01
     -5.859  0.5735E-01  0.7265E-01
     -5.653  0.7632E-03  0.1056E+00
     -5.447  0.2336E-01  0.1131E+00
     -5.241  0.5394E-02  0.1200E+00
     -5.035  0.0000E+00  0.1200E+00
     -4.829  0.0000E+00  0.1200E+00
     -4.623  0.0000E+00  0.1200E+00
     -4.417  0.0000E+00  0.1200E+00
     -4.211  0.0000E+00  0.1200E+00
     -4.005  0.0000E+00  0.1200E+00
     -3.799  0.0000E+00  0.1200E+00
     -3.593  0.0000E+00  0.1200E+00
     -3.387  0.0000E+00  0.1200E+00
     -3.181  0.0000E+00  0.1200E+00
     -2.975  0.0000E+00  0.1200E+00
     -2.769  0.0000E+00  0.1200E+00
     -2.563  0.0000E+00  0.1200E+00
     -2.357  0.0000E+00  0.1200E+00
     -2.151  0.1345E-02  0.1206E+00
     -1.945  0.1617E-01  0.1295E+00
     -1.739  0.1079E-01  0.1318E+00
     -1.533  0.0000E+00  0.1340E+00
     -1.327  0.2696E-02  0.1353E+00
     -1.121  0.0000E+00  0.1353E+00
     -0.915  0.0000E+00  0.1375E+00
     -0.709  0.0000E+00  0.1375E+00
     -0.503  0.7388E-07  0.1386E+00
     -0.297  0.3656E-13  0.1397E+00
     -0.091  0.1811E-04  0.1419E+00
      0.115  0.1079E-01  0.1486E+00
      0.321  0.2697E-02  0.1492E+00
      0.527  0.2127E-01  0.1571E+00
      0.733  0.0000E+00  0.1605E+00
      0.939  0.5394E-02  0.1649E+00
      1.145  0.1061E-01  0.1715E+00
      1.351  0.8513E-02  0.1733E+00
      1.557  0.1257E-01  0.1771E+00
      1.763  0.3339E-07  0.1771E+00
      1.969  0.7192E-02  0.1797E+00
      2.175  0.1348E-02  0.1800E+00
      2.381  0.0000E+00  0.1800E+00
      2.587  0.0000E+00  0.1800E+00
      2.793  0.4439E-03  0.1801E+00
      2.999  0.0000E+00  0.1801E+00
      3.205  0.0000E+00  0.1801E+00
      3.411  0.0000E+00  0.1801E+00
      3.617  0.0000E+00  0.1801E+00
      3.823  0.9807E-11  0.1801E+00
      4.029  0.3596E-02  0.1819E+00
      4.235  0.0000E+00  0.1819E+00
      4.441  0.0000E+00  0.1819E+00
      4.647  0.6741E-03  0.1826E+00
      4.853  0.1338E-01  0.1869E+00
      5.059  0.1858E-13  0.1936E+00
      5.265  0.2697E-02  0.1953E+00
      5.471  0.0000E+00  0.1953E+00
      5.677  0.1079E-01  0.1975E+00
      5.883  0.5394E-02  0.2047E+00
      6.089  0.7589E-04  0.2047E+00
      6.295  0.0000E+00  0.2092E+00
      6.501  0.0000E+00  0.2092E+00
      6.707  0.1212E-01  0.2117E+00
      6.913  0.0000E+00  0.2157E+00
      7.119  0.2994E-18  0.2194E+00
      7.325  0.1612E-01  0.2239E+00
      7.531  0.1410E-07  0.2261E+00
      7.737  0.1076E-01  0.2306E+00
      7.943  0.0000E+00  0.2350E+00
      8.149  0.5076E-13  0.2372E+00
      8.355  0.3596E-02  0.2402E+00
      8.561  0.0000E+00  0.2424E+00
      8.767  0.5394E-02  0.2457E+00
      8.973  0.5394E-02  0.2469E+00
      9.179  0.9132E-17  0.2517E+00
      9.385  0.1347E-01  0.2550E+00
      9.591  0.1078E-01  0.2595E+00
      9.797  0.1175E-01  0.2620E+00
     10.003  0.1351E-01  0.2657E+00
     10.209  0.7677E-09  0.2681E+00
     10.415  0.4225E-04  0.2703E+00
     10.621  0.1808E-01  0.2747E+00
     10.827  0.1548E-02  0.2754E+00
     11.033  0.1203E-01  0.2801E+00
     11.239  0.1618E-01  0.2869E+00
     11.445  0.2831E-06  0.2869E+00
     11.651  0.5394E-02  0.2881E+00
     11.857  0.2618E-01  0.2948E+00
     12.063  0.1079E-01  0.2972E+00
     12.269  0.7114E-15  0.2975E+00
     12.475  0.7604E-02  0.3048E+00
     12.681  0.0000E+00  0.3077E+00
     12.887  0.7024E-02  0.3114E+00
     13.093  0.2994E-18  0.3124E+00
     13.299  0.1066E-01  0.3157E+00
     13.505  0.2506E-01  0.3246E+00
     13.711  0.2321E-01  0.3348E+00
     13.917  0.1290E-05  0.3357E+00
     14.123  0.6742E-02  0.3414E+00
     14.329  0.1079E-01  0.3477E+00
     14.535  0.1079E-01  0.3500E+00
     14.741  0.2118E-02  0.3504E+00
     14.947  0.0000E+00  0.3533E+00
     15.153  0.1017E-14  0.3544E+00
     15.359  0.0000E+00  0.3572E+00
     15.565  0.1159E-03  0.3572E+00
     15.771  0.5602E-02  0.3595E+00
     15.977  0.3776E-01  0.3701E+00
     16.183  0.8989E-02  0.3742E+00
     16.389  0.1091E-02  0.3799E+00
     16.595  0.1079E-01  0.3905E+00
     16.801  0.5394E-02  0.3938E+00
     17.007  0.2976E-06  0.3997E+00
     17.213  0.4083E-02  0.4011E+00
     17.419  0.2696E-01  0.4114E+00
     17.625  0.1291E-01  0.4188E+00
     17.831  0.2697E-02  0.4211E+00
     18.037  0.1798E-02  0.4237E+00
     18.243  0.6394E-02  0.4253E+00
     18.449  0.0000E+00  0.4298E+00
     18.655  0.0000E+00  0.4320E+00
     18.861  0.0000E+00  0.4320E+00
     19.067  0.5394E-02  0.4354E+00
     19.273  0.2877E-01  0.4457E+00
     19.479  0.5188E-02  0.4492E+00
     19.685  0.2767E-02  0.4533E+00
     19.891  0.2697E-01  0.4624E+00
     20.097  0.2157E-01  0.4669E+00
     20.303  0.2745E-02  0.4722E+00
     20.509  0.1415E-01  0.4807E+00
     20.715  0.1316E-07  0.4810E+00
     20.921  0.1312E-04  0.4855E+00
     21.127  0.5201E-03  0.4933E+00
     21.333  0.0000E+00  0.4955E+00
     21.539  0.2992E-01  0.5061E+00
     21.745  0.8860E-03  0.5106E+00
     21.951  0.2157E-01  0.5185E+00
     22.157  0.1618E-01  0.5231E+00
     22.363  0.1773E-03  0.5254E+00
     22.569  0.1079E-01  0.5283E+00
     22.775  0.1700E-01  0.5333E+00
     22.981  0.0000E+00  0.5379E+00
     23.187  0.1079E-01  0.5427E+00
     23.393  0.1783E-02  0.5484E+00
     23.599  0.2312E-11  0.5564E+00
     23.805  0.1258E-01  0.5612E+00
     24.011  0.0000E+00  0.5667E+00
     24.217  0.8279E-03  0.5679E+00
     24.423  0.1214E-01  0.5744E+00
     24.629  0.2439E-01  0.5857E+00
     24.836  0.1079E-01  0.5906E+00
     25.042  0.2302E-01  0.5987E+00
     25.248  0.6756E-03  0.6002E+00
     25.454  0.3794E-01  0.6131E+00
     25.660  0.5394E-02  0.6192E+00
     25.866  0.2079E-01  0.6234E+00
     26.072  0.1079E-01  0.6281E+00
     26.278  0.1079E-01  0.6336E+00
     26.484  0.0000E+00  0.6358E+00
     26.690  0.8625E-08  0.6392E+00
     26.896  0.8755E-02  0.6476E+00
     27.102  0.3883E-02  0.6495E+00
     27.308  0.5394E-02  0.6539E+00
     27.514  0.6731E-04  0.6545E+00
     27.720  0.1417E-01  0.6666E+00
     27.926  0.1290E-01  0.6715E+00
     28.132  0.2157E-01  0.6776E+00
     28.338  0.1393E-01  0.6849E+00
     28.544  0.5394E-02  0.6892E+00
     28.750  0.2401E-01  0.6997E+00
     28.956  0.3645E-01  0.7144E+00
     29.162  0.2343E-01  0.7213E+00
     29.368  0.3589E-14  0.7261E+00
     29.574  0.8090E-02  0.7294E+00
     29.780  0.1541E-01  0.7375E+00
     29.986  0.3056E-01  0.7451E+00
     30.192  0.0000E+00  0.7492E+00
     30.398  0.2300E-11  0.7495E+00
     30.604  0.8085E-02  0.7548E+00
     30.810  0.1034E-01  0.7619E+00
     31.016  0.1080E-01  0.7663E+00
     31.222  0.3596E-02  0.7687E+00
     31.428  0.1618E-01  0.7752E+00
     31.634  0.1079E-01  0.7796E+00
     31.840  0.3267E-01  0.7899E+00
     32.046  0.4315E-01  0.8030E+00
     32.252  0.7138E-02  0.8044E+00
     32.458  0.2298E-01  0.8158E+00
     32.664  0.6287E-05  0.8194E+00
     32.870  0.1103E-01  0.8262E+00
     33.076  0.2142E-01  0.8339E+00
     33.282  0.1214E-01  0.8394E+00
     33.488  0.2108E-01  0.8438E+00
     33.694  0.3144E-01  0.8544E+00
     33.900  0.1348E-01  0.8654E+00
     34.106  0.1079E-01  0.8676E+00
     34.312  0.1079E-01  0.8720E+00
     34.518  0.0000E+00  0.8743E+00
     34.724  0.1797E-01  0.8793E+00
     34.930  0.1553E-01  0.8964E+00
     35.136  0.1637E-01  0.9013E+00
     35.342  0.3596E-02  0.9024E+00
     35.548  0.2877E-01  0.9167E+00
     35.754  0.1348E-01  0.9224E+00
     35.960  0.5745E-02  0.9236E+00
     36.166  0.3181E-02  0.9262E+00
     36.372  0.2592E-02  0.9308E+00
     36.578  0.1317E-04  0.9421E+00
     36.784  0.6466E-07  0.9444E+00
     36.990  0.2509E-01  0.9584E+00
     37.196  0.1904E-01  0.9712E+00
     37.402  0.3156E-01  0.9802E+00
     37.608  0.8090E-02  0.9821E+00
     37.814  0.7244E-12  0.9836E+00
     38.020  0.1860E-01  0.9948E+00
     38.226  0.1079E-01  0.9999E+00
     38.432  0.4925E-02  0.1006E+01
     38.638  0.1019E-01  0.1013E+01
     38.844  0.1843E-01  0.1017E+01
     39.050  0.3972E-02  0.1025E+01
     39.256  0.2244E-01  0.1032E+01
     39.462  0.1016E-01  0.1042E+01
     39.668  0.3728E-01  0.1053E+01
     39.874  0.0000E+00  0.1056E+01
     40.080  0.3810E-01  0.1066E+01
     40.286  0.1885E-01  0.1075E+01
     40.492  0.1088E-01  0.1079E+01
     40.698  0.2697E-02  0.1088E+01
     40.904  0.1223E-02  0.1091E+01
     41.110  0.2104E-02  0.1098E+01
     41.316  0.2527E-01  0.1103E+01
     41.522  0.8293E-02  0.1115E+01
     41.728  0.9595E-02  0.1120E+01
     41.934  0.1144E-01  0.1131E+01
     42.140  0.1761E-02  0.1132E+01
     42.346  0.1922E-01  0.1142E+01
     42.552  0.1080E-01  0.1149E+01
     42.758  0.6657E-02  0.1154E+01
     42.964  0.2697E-02  0.1162E+01
     43.170  0.1079E-01  0.1170E+01
     43.376  0.2490E-01  0.1176E+01
     43.582  0.2157E-01  0.1184E+01
     43.788  0.3766E-03  0.1189E+01
     43.994  0.1798E-01  0.1198E+01
     44.200  0.1079E-01  0.1203E+01
     44.406  0.1864E-02  0.1210E+01
     44.612  0.9396E-02  0.1217E+01
     44.818  0.1525E-01  0.1221E+01
     45.024  0.6472E-01  0.1239E+01
     45.230  0.5321E-02  0.1241E+01
     45.436  0.1475E-01  0.1254E+01
     45.642  0.1079E-01  0.1256E+01
     45.848  0.6742E-02  0.1260E+01
     46.054  0.3865E-01  0.1271E+01
     46.260  0.0000E+00  0.1271E+01
     46.466  0.1798E-02  0.1274E+01
     46.672  0.0000E+00  0.1275E+01
     46.878  0.0000E+00  0.1277E+01
     47.084  0.0000E+00  0.1279E+01
     47.290  0.0000E+00  0.1280E+01
     47.496  0.0000E+00  0.1280E+01
     47.702  0.0000E+00  0.1280E+01
     47.908  0.0000E+00  0.1280E+01
     48.114  0.0000E+00  0.1280E+01
     48.320  0.0000E+00  0.1280E+01
     48.526  0.0000E+00  0.1280E+01
     48.732  0.0000E+00  0.1280E+01
     48.938  0.0000E+00  0.1280E+01
     49.144  0.0000E+00  0.1280E+01
     49.350  0.0000E+00  0.1280E+01
     49.556  0.0000E+00  0.1280E+01
     49.762  0.0000E+00  0.1280E+01
     49.968  0.0000E+00  0.1280E+01
     49.96793364    -11.83313205  301      2.22661040      1.00000000
    -11.833  0.0000E+00  0.0000E+00  0.0000E+00
    -11.627  0.0000E+00  0.0000E+00  0.0000E+00
    -11.421  0.0000E+00  0.0000E+00  0.0000E+00
    -11.215  0.0000E+00  0.0000E+00  0.0000E+00
    -11.009  0.0000E+00  0.0000E+00  0.0000E+00
    -10.803  0.0000E+00  0.0000E+00  0.0000E+00
    -10.597  0.0000E+00  0.0000E+00  0.0000E+00
    -10.391  0.0000E+00  0.0000E+00  0.0000E+00
    -10.185  0.0000E+00  0.0000E+00  0.0000E+00
     -9.979  0.0000E+00  0.0000E+00  0.0000E+00
     -9.773  0.0000E+00  0.0000E+00  0.0000E+00
     -9.567  0.0000E+00  0.0000E+00  0.0000E+00
     -9.361  0.0000E+00  0.0000E+00  0.0000E+00
     -9.155  0.0000E+00  0.0000E+00  0.0000E+00
     -8.949  0.2779E-02  0.1918E-06  0.1334E-05
     -8.743  0.2037E-01  0.3212E-02  0.2556E-01
     -8.537  0.3190E-01  0.3643E-01  0.3609E+00
     -8.331  0.0000E+00  0.0000E+00  0.0000E+00
     -8.125  0.0000E+00  0.0000E+00  0.0000E+00
     -7.919  0.0000E+00  0.0000E+00  0.0000E+00
     -7.713  0.0000E+00  0.0000E+00  0.0000E+00
     -7.507  0.0000E+00  0.0000E+00  0.0000E+00
     -7.301  0.0000E+00  0.0000E+00  0.0000E+00
     -7.095  0.0000E+00  0.0000E+00  0.0000E+00
     -6.889  0.0000E+00  0.0000E+00  0.0000E+00
     -6.683  0.0000E+00  0.0000E+00  0.0000E+00
     -6.477  0.0000E+00  0.0000E+00  0.0000E+00
     -6.271  0.0000E+00  0.0000E+00  0.0000E+00
     -6.065  0.2782E-08  0.3345E-03  0.7131E+00
     -5.859  0.9682E-02  0.3691E-03  0.5296E+01
     -5.653  0.7921E-03  0.1016E-03  0.6394E-01
     -5.447  0.1928E-01  0.4443E-02  0.1952E+01
     -5.241  0.1360E-15  0.2334E-02  0.4400E+00
     -5.035  0.0000E+00  0.0000E+00  0.0000E+00
     -4.829  0.0000E+00  0.0000E+00  0.0000E+00
     -4.623  0.0000E+00  0.0000E+00  0.0000E+00
     -4.417  0.0000E+00  0.0000E+00  0.0000E+00
     -4.211  0.0000E+00  0.0000E+00  0.0000E+00
     -4.005  0.0000E+00  0.0000E+00  0.0000E+00
     -3.799  0.0000E+00  0.0000E+00  0.0000E+00
     -3.593  0.0000E+00  0.0000E+00  0.0000E+00
     -3.387  0.0000E+00  0.0000E+00  0.0000E+00
     -3.181  0.0000E+00  0.0000E+00  0.0000E+00
     -2.975  0.0000E+00  0.0000E+00  0.0000E+00
     -2.769  0.0000E+00  0.0000E+00  0.0000E+00
     -2.563  0.0000E+00  0.0000E+00  0.0000E+00
     -2.357  0.0000E+00  0.0000E+00  0.0000E+00
     -2.151  0.3294E-01  0.1609E-17  0.3988E-02
     -1.945  0.3838E+00  0.7696E-02  0.3517E-01
     -1.739  0.1909E+00  0.2321E-01  0.2465E-01
     -1.533  0.0000E+00  0.0000E+00  0.0000E+00
     -1.327  0.5564E-01  0.1641E-02  0.1563E-01
     -1.121  0.0000E+00  0.0000E+00  0.0000E+00
     -0.915  0.0000E+00  0.0000E+00  0.0000E+00
     -0.709  0.0000E+00  0.0000E+00  0.0000E+00
     -0.503  0.3338E-07  0.5269E-06  0.2018E-06
     -0.297  0.5923E-13  0.2466E-12  0.1125E-12
     -0.091  0.4258E-05  0.1231E-03  0.6659E-04
      0.115  0.1446E-01  0.7498E-01  0.3228E-01
      0.321  0.1816E-06  0.2150E-01  0.4698E-02
      0.527  0.3733E-01  0.1440E+00  0.6969E-01
      0.733  0.0000E+00  0.0000E+00  0.0000E+00
      0.939  0.7094E-02  0.3346E-01  0.2419E-01
      1.145  0.5106E-14  0.6881E-01  0.4744E-01
      1.351  0.1948E-15  0.5218E-01  0.4082E-01
      1.557  0.4264E-15  0.6810E-01  0.7023E-01
      1.763  0.5409E-21  0.1529E-06  0.2089E-06
      1.969  0.1585E-15  0.2816E-01  0.4936E-01
      2.175  0.1710E-14  0.3629E-02  0.1046E-01
      2.381  0.0000E+00  0.0000E+00  0.0000E+00
      2.587  0.0000E+00  0.0000E+00  0.0000E+00
      2.793  0.1372E-01  0.2119E-15  0.2986E-15
      2.999  0.0000E+00  0.0000E+00  0.0000E+00
      3.205  0.0000E+00  0.0000E+00  0.0000E+00
      3.411  0.0000E+00  0.0000E+00  0.0000E+00
      3.617  0.0000E+00  0.0000E+00  0.0000E+00
      3.823  0.2401E-09  0.3073E-10  0.9062E-11
      4.029  0.8494E-01  0.1404E-01  0.1862E-02
      4.235  0.0000E+00  0.0000E+00  0.0000E+00
      4.441  0.0000E+00  0.0000E+00  0.0000E+00
      4.647  0.6215E-14  0.6504E-02  0.2350E-02
      4.853  0.2465E+00  0.5797E-01  0.2302E-01
      5.059  0.2585E-12  0.1023E-12  0.4759E-13
      5.265  0.2196E-01  0.1577E-01  0.7080E-02
      5.471  0.0000E+00  0.0000E+00  0.0000E+00
      5.677  0.2568E+00  0.1172E-01  0.1710E-01
      5.883  0.2356E-12  0.4365E-01  0.2098E-01
      6.089  0.3252E-03  0.9781E-03  0.9187E-04
      6.295  0.0000E+00  0.0000E+00  0.0000E+00
      6.501  0.0000E+00  0.0000E+00  0.0000E+00
      6.707  0.7358E-03  0.1083E+00  0.3820E-01
      6.913  0.0000E+00  0.0000E+00  0.0000E+00
      7.119  0.3182E-17  0.6422E-18  0.4199E-18
      7.325  0.1446E-10  0.3069E+00  0.3148E-01
      7.531  0.4713E-08  0.1640E-06  0.2768E-07
      7.737  0.6422E-11  0.1873E+00  0.2451E-01
      7.943  0.0000E+00  0.0000E+00  0.0000E+00
      8.149  0.8728E-26  0.9034E-12  0.1090E-12
      8.355  0.1256E-01  0.2032E-01  0.5508E-02
      8.561  0.0000E+00  0.0000E+00  0.0000E+00
      8.767  0.1583E-14  0.7423E-01  0.1305E-01
      8.973  0.3184E-10  0.8504E-01  0.1067E-01
      9.179  0.4038E-18  0.6244E-17  0.5801E-16
      9.385  0.1198E-01  0.1139E+00  0.4974E-01
      9.591  0.3445E-03  0.1897E+00  0.2412E-01
      9.797  0.1505E-14  0.1645E+00  0.3310E-01
     10.003  0.1252E-01  0.1150E+00  0.5610E-01
     10.209  0.9472E-09  0.2689E-08  0.3155E-08
     10.415  0.5061E-03  0.2573E-03  0.1540E-04
     10.621  0.1126E-02  0.4951E-01  0.1262E+00
     10.827  0.8809E-02  0.3438E-02  0.1904E-02
     11.033  0.3225E-03  0.7395E-01  0.6657E-01
     11.239  0.6923E-01  0.2116E+00  0.2293E-01
     11.445  0.1725E-26  0.5089E-18  0.2798E-05
     11.651  0.1145E-02  0.7830E-01  0.1807E-01
     11.857  0.1175E+00  0.1286E+00  0.9079E-01
     12.063  0.6172E-01  0.3403E-01  0.2764E-01
     12.269  0.1520E-17  0.9449E-14  0.3665E-14
     12.475  0.1631E-12  0.6794E-01  0.2367E-01
     12.681  0.0000E+00  0.0000E+00  0.0000E+00
     12.887  0.2495E-02  0.1634E-01  0.2879E-01
     13.093  0.3714E-31  0.4499E-17  0.1154E-17
     13.299  0.4079E-03  0.1186E+00  0.3810E-01
     13.505  0.2536E-01  0.2284E+00  0.8672E-01
     13.711  0.6582E-01  0.2189E+00  0.8353E-01
     13.917  0.6411E-14  0.3556E-05  0.6098E-05
     14.123  0.6856E-02  0.7912E-01  0.1864E-01
     14.329  0.9408E-02  0.1561E-01  0.5415E-01
     14.535  0.2561E-01  0.6876E-01  0.1546E-01
     14.741  0.2211E-04  0.1955E-01  0.9570E-02
     14.947  0.0000E+00  0.0000E+00  0.0000E+00
     15.153  0.1538E-14  0.7500E-14  0.3238E-14
     15.359  0.0000E+00  0.0000E+00  0.0000E+00
     15.565  0.2155E-04  0.1455E-02  0.2737E-03
     15.771  0.7967E-16  0.3001E-01  0.3691E-01
     15.977  0.2671E-01  0.1657E+00  0.1127E+00
     16.183  0.9317E-02  0.3596E-01  0.1282E-01
     16.389  0.1061E-02  0.8576E-02  0.4779E-02
     16.595  0.3411E-04  0.1043E+00  0.4315E-01
     16.801  0.3081E-14  0.7844E-01  0.4318E-02
     17.007  0.4068E-28  0.1709E-19  0.3913E-05
     17.213  0.1356E-01  0.1261E-01  0.7231E-02
     17.419  0.6751E-01  0.1009E+00  0.1286E+00
     17.625  0.1537E-01  0.2445E-02  0.1109E+00
     17.831  0.4908E-16  0.1177E-01  0.2048E-02
     18.037  0.2412E-04  0.2753E-01  0.5546E-03
     18.243  0.7066E-02  0.3832E-01  0.1334E-01
     18.449  0.0000E+00  0.0000E+00  0.0000E+00
     18.655  0.0000E+00  0.0000E+00  0.0000E+00
     18.861  0.0000E+00  0.0000E+00  0.0000E+00
     19.067  0.4365E-13  0.2861E-01  0.3041E-01
     19.273  0.6007E-02  0.1847E+00  0.9923E-01
     19.479  0.1660E-16  0.7842E-02  0.7928E-02
     19.685  0.3605E-03  0.2644E-01  0.2948E-02
     19.891  0.1448E-01  0.9305E-01  0.1725E+00
     20.097  0.1645E-01  0.4126E-01  0.1067E+00
     20.303  0.4875E-02  0.1078E-02  0.4734E-02
     20.509  0.1435E-01  0.1976E-01  0.5459E-01
     20.715  0.3765E-07  0.2499E-07  0.3780E-07
     20.921  0.2865E-04  0.5621E-04  0.6280E-04
     21.127  0.3015E-16  0.2063E-02  0.3933E-02
     21.333  0.0000E+00  0.0000E+00  0.0000E+00
     21.539  0.3479E-01  0.1455E+00  0.1510E+00
     21.745  0.2185E-02  0.1024E-01  0.3128E-02
     21.951  0.5155E-01  0.1133E+00  0.1572E+00
     22.157  0.1219E-01  0.3670E-01  0.8349E-01
     22.363  0.1609E-21  0.3038E-17  0.2587E-16
     22.569  0.1512E-01  0.1099E-01  0.1014E+00
     22.775  0.1005E-14  0.1941E-01  0.9995E-01
     22.981  0.0000E+00  0.0000E+00  0.0000E+00
     23.187  0.1577E-01  0.1350E-01  0.8011E-01
     23.393  0.8329E-03  0.6081E-02  0.8982E-02
     23.599  0.9043E-25  0.1214E-10  0.9569E-11
     23.805  0.3085E-02  0.4852E-01  0.4969E-01
     24.011  0.0000E+00  0.0000E+00  0.0000E+00
     24.217  0.1915E-15  0.2985E-02  0.5144E-02
     24.423  0.1717E-02  0.2509E-01  0.1089E+00
     24.629  0.9426E-02  0.1172E+00  0.1037E+00
     24.836  0.1513E-02  0.6150E-01  0.4094E-01
     25.042  0.6882E-01  0.9601E-01  0.1840E+00
     25.248  0.5348E-03  0.2261E-02  0.6852E-02
     25.454  0.4168E-01  0.7223E-01  0.2644E+00
     25.660  0.6773E-02  0.3265E-01  0.3882E-01
     25.866  0.1420E-01  0.4074E-01  0.7073E-01
     26.072  0.1107E-01  0.3558E-02  0.7635E-01
     26.278  0.8048E-02  0.1931E-01  0.2993E-01
     26.484  0.0000E+00  0.0000E+00  0.0000E+00
     26.690  0.1824E-07  0.3440E-07  0.2068E-07
     26.896  0.3794E-16  0.1812E-01  0.4900E-01
     27.102  0.6756E-02  0.3392E-02  0.4261E-01
     27.308  0.3964E-10  0.9021E-02  0.6168E-02
     27.514  0.1679E-08  0.9699E-04  0.5024E-03
     27.720  0.5299E-03  0.2813E-01  0.8849E-01
     27.926  0.1688E-01  0.5295E-01  0.8190E-01
     28.132  0.4105E-01  0.1050E+00  0.1405E+00
     28.338  0.1515E-01  0.4176E-01  0.1566E+00
     28.544  0.1874E-02  0.5205E-02  0.6591E-02
     28.750  0.1107E-01  0.3195E-01  0.2078E+00
     28.956  0.2754E-01  0.1104E+00  0.2508E+00
     29.162  0.4115E-02  0.9995E-01  0.1288E+00
     29.368  0.3215E-14  0.2269E-14  0.3323E-14
     29.574  0.1069E-01  0.1743E-01  0.1216E+00
     29.780  0.1068E-14  0.6301E-01  0.7838E-01
     29.986  0.6920E-02  0.6052E-01  0.2731E+00
     30.192  0.0000E+00  0.0000E+00  0.0000E+00
     30.398  0.4997E-25  0.3237E-11  0.1283E-10
     30.604  0.4457E-11  0.5405E-02  0.1758E-01
     30.810  0.1244E-01  0.3742E-02  0.3841E-01
     31.016  0.3308E-01  0.1658E-01  0.7324E-01
     31.222  0.2008E-07  0.3687E-06  0.1606E-05
     31.428  0.2494E-01  0.5473E-01  0.1630E+00
     31.634  0.2048E-12  0.4973E-01  0.1501E+00
     31.840  0.2492E-01  0.1099E+00  0.1709E+00
     32.046  0.5299E-03  0.1122E+00  0.4095E+00
     32.252  0.4541E-16  0.2712E-02  0.8964E-01
     32.458  0.7931E-02  0.4421E-01  0.2802E+00
     32.664  0.4218E-05  0.9532E-05  0.6165E-04
     32.870  0.1250E-03  0.1874E-01  0.8583E-01
     33.076  0.7669E-02  0.3176E-01  0.2226E+00
     33.282  0.1043E-03  0.1048E-01  0.1243E+00
     33.488  0.2168E-02  0.3007E-01  0.1368E+00
     33.694  0.1324E-01  0.1221E+00  0.1817E+00
     33.900  0.7909E-02  0.1677E-01  0.9461E-01
     34.106  0.6301E-02  0.5484E-01  0.7711E-01
     34.312  0.1736E-01  0.1963E-01  0.3023E-01
     34.518  0.0000E+00  0.0000E+00  0.0000E+00
     34.724  0.8808E-02  0.4010E-01  0.1716E+00
     34.930  0.1307E-02  0.3308E-01  0.2733E+00
     35.136  0.5203E-02  0.1244E-01  0.1271E+00
     35.342  0.2746E-01  0.9588E-02  0.1832E-03
     35.548  0.3129E-01  0.4603E-01  0.2683E+00
     35.754  0.1896E-02  0.1697E-01  0.1472E+00
     35.960  0.1979E-02  0.3529E-01  0.3703E-01
     36.166  0.1055E-01  0.2252E-01  0.8340E-02
     36.372  0.4945E-02  0.1083E-01  0.3390E-01
     36.578  0.1799E-18  0.3754E-04  0.1396E-03
     36.784  0.5715E-09  0.3216E-07  0.8783E-06
     36.990  0.9148E-03  0.6369E-01  0.1835E+00
     37.196  0.2042E-02  0.4617E-01  0.1820E+00
     37.402  0.3900E-01  0.8494E-01  0.2195E+00
     37.608  0.6191E-06  0.1421E-02  0.1105E+00
     37.814  0.6308E-13  0.3881E-11  0.9408E-11
     38.020  0.2866E-02  0.4301E-01  0.2163E+00
     38.226  0.6341E-13  0.3914E-01  0.7252E-01
     38.432  0.4012E-03  0.8952E-02  0.2839E-01
     38.638  0.5191E-02  0.1899E-01  0.3718E-01
     38.844  0.8199E-02  0.3524E-01  0.7971E-01
     39.050  0.1665E-02  0.9540E-03  0.1528E-01
     39.256  0.1480E-01  0.2388E-01  0.1798E+00
     39.462  0.1565E-01  0.1174E-01  0.4574E-01
     39.668  0.6391E-01  0.1212E+00  0.2877E+00
     39.874  0.0000E+00  0.0000E+00  0.0000E+00
     40.080  0.2686E-01  0.1394E-01  0.4138E+00
     40.286  0.1829E-04  0.2383E-01  0.1705E+00
     40.492  0.3069E-04  0.3204E-01  0.7694E-01
     40.698  0.2396E-25  0.3645E-15  0.1953E-03
     40.904  0.5384E-10  0.1865E-01  0.4973E-02
     41.110  0.2473E-15  0.9913E-02  0.2712E-01
     41.316  0.7031E-02  0.9912E-01  0.3602E+00
     41.522  0.8190E-02  0.5344E-02  0.1089E+00
     41.728  0.2173E-01  0.2060E-01  0.4866E-01
     41.934  0.5296E-02  0.1118E+00  0.6539E-01
     42.140  0.1543E-02  0.1598E-01  0.5614E-04
     42.346  0.5181E-02  0.7554E-01  0.1511E+00
     42.552  0.3381E-02  0.1119E-01  0.1819E+00
     42.758  0.3747E-03  0.2041E-01  0.4301E-01
     42.964  0.2525E-23  0.3748E-13  0.6381E-01
     43.170  0.1284E-03  0.3753E-01  0.8133E-01
     43.376  0.2678E-02  0.8275E-01  0.1306E+00
     43.582  0.3564E-02  0.4316E-01  0.1991E+00
     43.788  0.6151E-03  0.2503E-02  0.4045E-02
     43.994  0.1858E-01  0.1130E+00  0.2069E+00
     44.200  0.2240E-14  0.8782E-01  0.4002E-01
     44.406  0.8310E-02  0.8201E-02  0.1714E-01
     44.612  0.4161E-02  0.1233E-01  0.1191E+00
     44.818  0.5745E-02  0.4770E-01  0.1508E+00
     45.024  0.4776E-01  0.2651E+00  0.4598E+00
     45.230  0.3082E-03  0.3529E-01  0.1143E-01
     45.436  0.8723E-02  0.7314E-01  0.1258E+00
     45.642  0.3552E-09  0.2149E-01  0.8545E-01
     45.848  0.5276E-04  0.7887E-01  0.2561E-01
     46.054  0.7089E-02  0.1101E+00  0.3015E+00
     46.260  0.0000E+00  0.0000E+00  0.0000E+00
     46.466  0.1920E-16  0.4028E-01  0.1326E-01
     46.672  0.0000E+00  0.0000E+00  0.0000E+00
     46.878  0.0000E+00  0.0000E+00  0.0000E+00
     47.084  0.0000E+00  0.0000E+00  0.0000E+00
     47.290  0.0000E+00  0.0000E+00  0.0000E+00
     47.496  0.0000E+00  0.0000E+00  0.0000E+00
     47.702  0.0000E+00  0.0000E+00  0.0000E+00
     47.908  0.0000E+00  0.0000E+00  0.0000E+00
     48.114  0.0000E+00  0.0000E+00  0.0000E+00
     48.320  0.0000E+00  0.0000E+00  0.0000E+00
     48.526  0.0000E+00  0.0000E+00  0.0000E+00
     48.732  0.0000E+00  0.0000E+00  0.0000E+00
     48.938  0.0000E+00  0.0000E+00  0.0000E+00
     49.144  0.0000E+00  0.0000E+00  0.0000E+00
     49.350  0.0000E+00  0.0000E+00  0.0000E+00
     49.556  0.0000E+00  0.0000E+00  0.0000E+00
     49.762  0.0000E+00  0.0000E+00  0.0000E+00
     49.968  0.0000E+00  0.0000E+00  0.0000E+00
     49.96793364    -11.83313205  301      2.22661040      1.00000000
    -11.833  0.0000E+00  0.0000E+00  0.0000E+00
    -11.627  0.0000E+00  0.0000E+00  0.0000E+00
    -11.421  0.0000E+00  0.0000E+00  0.0000E+00
    -11.215  0.0000E+00  0.0000E+00  0.0000E+00
    -11.009  0.0000E+00  0.0000E+00  0.0000E+00
    -10.803  0.0000E+00  0.0000E+00  0.0000E+00
    -10.597  0.0000E+00  0.0000E+00  0.0000E+00
    -10.391  0.0000E+00  0.0000E+00  0.0000E+00
    -10.185  0.0000E+00  0.0000E+00  0.0000E+00
     -9.979  0.0000E+00  0.0000E+00  0.0000E+00
     -9.773  0.0000E+00  0.0000E+00  0.0000E+00
     -9.567  0.0000E+00  0.0000E+00  0.0000E+00
     -9.361  0.0000E+00  0.0000E+00  0.0000E+00
     -9.155  0.0000E+00  0.0000E+00  0.0000E+00
     -8.949  0.2569E-01  0.1278E-07  0.8217E-10
     -8.743  0.3174E+00  0.1339E-03  0.1556E-05
     -8.537  0.1845E+01  0.2512E-03  0.1110E-04
     -8.331  0.0000E+00  0.0000E+00  0.0000E+00
     -8.125  0.0000E+00  0.0000E+00  0.0000E+00
     -7.919  0.0000E+00  0.0000E+00  0.0000E+00
     -7.713  0.0000E+00  0.0000E+00  0.0000E+00
     -7.507  0.0000E+00  0.0000E+00  0.0000E+00
     -7.301  0.0000E+00  0.0000E+00  0.0000E+00
     -7.095  0.0000E+00  0.0000E+00  0.0000E+00
     -6.889  0.0000E+00  0.0000E+00  0.0000E+00
     -6.683  0.0000E+00  0.0000E+00  0.0000E+00
     -6.477  0.0000E+00  0.0000E+00  0.0000E+00
     -6.271  0.0000E+00  0.0000E+00  0.0000E+00
     -6.065  0.1397E-09  0.1524E-01  0.5722E-03
     -5.859  0.1304E-01  0.3081E-01  0.4837E-02
     -5.653  0.3801E-02  0.6109E-03  0.8660E-04
     -5.447  0.1609E+00  0.1206E-01  0.1591E-02
     -5.241  0.5821E-01  0.2569E-04  0.1609E-03
     -5.035  0.0000E+00  0.0000E+00  0.0000E+00
     -4.829  0.0000E+00  0.0000E+00  0.0000E+00
     -4.623  0.0000E+00  0.0000E+00  0.0000E+00
     -4.417  0.0000E+00  0.0000E+00  0.0000E+00
     -4.211  0.0000E+00  0.0000E+00  0.0000E+00
     -4.005  0.0000E+00  0.0000E+00  0.0000E+00
     -3.799  0.0000E+00  0.0000E+00  0.0000E+00
     -3.593  0.0000E+00  0.0000E+00  0.0000E+00
     -3.387  0.0000E+00  0.0000E+00  0.0000E+00
     -3.181  0.0000E+00  0.0000E+00  0.0000E+00
     -2.975  0.0000E+00  0.0000E+00  0.0000E+00
     -2.769  0.0000E+00  0.0000E+00  0.0000E+00
     -2.563  0.0000E+00  0.0000E+00  0.0000E+00
     -2.357  0.0000E+00  0.0000E+00  0.0000E+00
     -2.151  0.5948E-18  0.2880E-01  0.4768E-03
     -1.945  0.1858E-01  0.3513E+00  0.6069E-02
     -1.739  0.2816E-01  0.2427E+00  0.2427E-02
     -1.533  0.0000E+00  0.0000E+00  0.0000E+00
     -1.327  0.1322E-01  0.5797E-01  0.7645E-03
     -1.121  0.0000E+00  0.0000E+00  0.0000E+00
     -0.915  0.0000E+00  0.0000E+00  0.0000E+00
     -0.709  0.0000E+00  0.0000E+00  0.0000E+00
     -0.503  0.5539E-08  0.2261E-05  0.9766E-08
     -0.297  0.1393E-13  0.1144E-11  0.6332E-14
     -0.091  0.1492E-17  0.6124E-03  0.4702E-06
      0.115  0.1258E-02  0.3569E+00  0.2538E-02
      0.321  0.4860E-07  0.1006E+00  0.5456E-04
      0.527  0.1177E-01  0.7658E+00  0.4123E-02
      0.733  0.0000E+00  0.0000E+00  0.0000E+00
      0.939  0.3902E-03  0.1992E+00  0.2077E-02
      1.145  0.2441E-14  0.4347E+00  0.2035E-02
      1.351  0.5086E-15  0.3679E+00  0.1229E-02
      1.557  0.4039E-15  0.5527E+00  0.2255E-02
      1.763  0.1964E-20  0.1556E-05  0.3978E-08
      1.969  0.3332E-15  0.3388E+00  0.9242E-03
      2.175  0.1526E-14  0.6658E-01  0.7103E-04
      2.381  0.0000E+00  0.0000E+00  0.0000E+00
      2.587  0.0000E+00  0.0000E+00  0.0000E+00
      2.793  0.1055E-01  0.3297E-14  0.1090E-16
      2.999  0.0000E+00  0.0000E+00  0.0000E+00
      3.205  0.0000E+00  0.0000E+00  0.0000E+00
      3.411  0.0000E+00  0.0000E+00  0.0000E+00
      3.617  0.0000E+00  0.0000E+00  0.0000E+00
      3.823  0.9613E-10  0.4305E-10  0.2644E-10
      4.029  0.3684E-01  0.2058E-01  0.8650E-02
      4.235  0.0000E+00  0.0000E+00  0.0000E+00
      4.441  0.0000E+00  0.0000E+00  0.0000E+00
      4.647  0.3291E-02  0.2295E-14  0.2493E-02
      4.853  0.6722E-01  0.1571E+00  0.4613E-01
      5.059  0.6406E-13  0.1429E-12  0.7805E-13
      5.265  0.1507E-01  0.2742E-01  0.7681E-02
      5.471  0.0000E+00  0.0000E+00  0.0000E+00
      5.677  0.2681E-01  0.2456E+00  0.3745E-01
      5.883  0.1858E-01  0.3911E-01  0.2123E-01
      6.089  0.2648E-03  0.5555E-03  0.3621E-03
      6.295  0.0000E+00  0.0000E+00  0.0000E+00
      6.501  0.0000E+00  0.0000E+00  0.0000E+00