 vasp.5.3.5 31Mar14 (build Apr 15 2015 10:45:18) complex                        
  
 executed on             LinuxIFC date 2016.01.30  00:45:05
 running on   64 total cores
 distrk:  each k-point on   64 cores,    1 groups
 distr:  one band on NCORES_PER_BAND=   1 cores,   64 groups


--------------------------------------------------------------------------------------------------------


 INCAR:
 POTCAR:    PAW_PBE Cd 06Sep2000                  
 POTCAR:    PAW_PBE Te 08Apr2002                  

 ----------------------------------------------------------------------------- 
|                                                                             |
|           W    W    AA    RRRRR   N    N  II  N    N   GGGG   !!!           |
|           W    W   A  A   R    R  NN   N  II  NN   N  G    G  !!!           |
|           W    W  A    A  R    R  N N  N  II  N N  N  G       !!!           |
|           W WW W  AAAAAA  RRRRR   N  N N  II  N  N N  G  GGG   !            |
|           WW  WW  A    A  R   R   N   NN  II  N   NN  G    G                |
|           W    W  A    A  R    R  N    N  II  N    N   GGGG   !!!           |
|                                                                             |
|      For optimal performance we recommend to set                            |
|        NCORE= 4 - approx SQRT( number of cores)                             |
|      NCORE specifies how many cores store one orbital (NPAR=cpu/NCORE).     |
|      This setting can  greatly improve the performance of VASP for DFT.     |
|      The default, NPAR=number of cores might be grossly inefficient         |
|      on modern multi-core architectures or massively parallel machines.     |
|      Do your own testing !!!!                                               |
|      Unfortunately you need to use the default for GW and RPA calculations. |
|      (for HF NCORE is supported but not extensively tested yet)             |
|                                                                             |
 ----------------------------------------------------------------------------- 

 POTCAR:    PAW_PBE Cd 06Sep2000                  
   VRHFIN =Cd : s2 d10                                                          
   LEXCH  = PE                                                                  
   EATOM  =  1293.1815 eV,   95.0462 Ry                                         
                                                                                
   TITEL  = PAW_PBE Cd 06Sep2000                                                
   LULTRA =        F    use ultrasoft PP ?                                      
   IUNSCR =        1    unscreen: 0-lin 1-nonlin 2-no                           
   RPACOR =    2.000    partial core radius                                     
   POMASS =  112.411; ZVAL   =   12.000    mass and valenz                      
   RCORE  =    2.300    outmost cutoff radius                                   
   RWIGS  =    2.980; RWIGS  =    1.577    wigner-seitz radius (au A)           
   ENMAX  =  274.336; ENMIN  =  205.752 eV                                      
   RCLOC  =    2.054    cutoff for local pot                                    
   LCOR   =        T    correct aug charges                                     
   LPAW   =        T    paw PP                                                  
   EAUG   =  456.106                                                            
   DEXC   =    0.000                                                            
   RMAX   =    2.358    core radius for proj-oper                               
   RAUG   =    1.300    factor for augmentation sphere                          
   RDEP   =    2.450    radius for radial grids                                 
   RDEPT  =    1.955    core radius for aug-charge                              
                                                                                
   Atomic configuration                                                         
   12 entries                                                                   
     n  l   j            E        occ.                                          
     1  0  0.50    -26519.7817   2.0000                                         
     2  0  0.50     -3936.9612   2.0000                                         
     2  1  1.50     -3532.2230   6.0000                                         
     3  0  0.50      -733.7908   2.0000                                         
     3  1  1.50      -601.0792   6.0000                                         
     3  2  2.50      -393.5307  10.0000                                         
     4  0  0.50      -105.8977   2.0000                                         
     4  1  1.50       -66.9488   6.0000                                         
     4  2  2.50       -11.7331  10.0000                                         
     5  0  0.50        -5.6592   2.0000                                         
     5  1  0.50        -1.3606   0.0000                                         
     4  3  2.50        -1.3606   0.0000                                         
   Description                                                                  
     l       E           TYP  RCUT    TYP  RCUT                                 
     2    -11.7331479     23  2.300                                             
     2    -13.0937305     23  2.300                                             
     0     -5.6591502     23  2.300                                             
     0     -1.5561433     23  2.300                                             
     1     -2.7211652     23  2.300                                             
     1      8.3548275     23  2.300                                             
  local pseudopotential read in
  partial core-charges read in
  partial kinetic energy density read in
  atomic valenz-charges read in
  non local Contribution for L=           2  read in
    real space projection operators read in
  non local Contribution for L=           2  read in
    real space projection operators read in
  non local Contribution for L=           0  read in
    real space projection operators read in
  non local Contribution for L=           0  read in
    real space projection operators read in
  non local Contribution for L=           1  read in
    real space projection operators read in
  non local Contribution for L=           1  read in
    real space projection operators read in
    PAW grid and wavefunctions read in
 
   number of l-projection  operators is LMAX  =           6
   number of lm-projection operators is LMMAX =          18
 
 POTCAR:    PAW_PBE Te 08Apr2002                  
   VRHFIN =Te: s2p4                                                             
   LEXCH  = PE                                                                  
   EATOM  =   223.2721 eV,   16.4100 Ry                                         
                                                                                
   TITEL  = PAW_PBE Te 08Apr2002                                                
   LULTRA =        F    use ultrasoft PP ?                                      
   IUNSCR =        1    unscreen: 0-lin 1-nonlin 2-no                           
   RPACOR =    2.200    partial core radius                                     
   POMASS =  127.600; ZVAL   =    6.000    mass and valenz                      
   RCORE  =    2.300    outmost cutoff radius                                   
   RWIGS  =    2.900; RWIGS  =    1.535    wigner-seitz radius (au A)           
   ENMAX  =  174.982; ENMIN  =  131.236 eV                                      
   ICORE  =        3    local potential                                         
   LCOR   =        T    correct aug charges                                     
   LPAW   =        T    paw PP                                                  
   EAUG   =  368.792                                                            
   DEXC   =    0.000                                                            
   RMAX   =    2.345    core radius for proj-oper                               
   RAUG   =    1.300    factor for augmentation sphere                          
   RDEP   =    2.397    radius for radial grids                                 
   RDEPT  =    2.174    core radius for aug-charge                              
                                                                                
   Atomic configuration                                                         
   13 entries                                                                   
     n  l   j            E        occ.                                          
     1  0  0.50    -31621.2075   2.0000                                         
     2  0  0.50     -4848.7941   2.0000                                         
     2  1  1.50     -4352.1960   6.0000                                         
     3  0  0.50      -964.9612   2.0000                                         
     3  1  1.50      -803.6179   6.0000                                         
     3  2  2.50      -559.8710  10.0000                                         
     4  0  0.50      -164.3522   2.0000                                         
     4  1  1.50      -114.3756   6.0000                                         
     4  2  2.50       -41.6483  10.0000                                         
     5  0  0.50       -15.1072   2.0000                                         
     5  1  0.50        -5.9526   4.0000                                         
     5  2  1.50        -5.4423   0.0000                                         
     4  3  2.50        -5.4423   0.0000                                         
   Description                                                                  
     l       E           TYP  RCUT    TYP  RCUT                                 
     0    -15.1072389     23  2.300                                             
     0    -16.4678215     23  2.300                                             
     1     -5.9526306     23  2.300                                             
     1     -2.4873968     23  2.300                                             
     2     -5.4423304     23  2.300                                             
     3     -1.3605826     23  2.300                                             
  local pseudopotential read in
  partial core-charges read in
  partial kinetic energy density read in
  atomic valenz-charges read in
  non local Contribution for L=           0  read in
    real space projection operators read in
  non local Contribution for L=           0  read in
    real space projection operators read in
  non local Contribution for L=           1  read in
    real space projection operators read in
  non local Contribution for L=           1  read in
    real space projection operators read in
  non local Contribution for L=           2  read in
    real space projection operators read in
    PAW grid and wavefunctions read in
 
   number of l-projection  operators is LMAX  =           5
   number of lm-projection operators is LMMAX =          13
 

 ----------------------------------------------------------------------------- 
|                                                                             |
|  ADVICE TO THIS USER RUNNING 'VASP/VAMP'   (HEAR YOUR MASTER'S VOICE ...):  |
|                                                                             |
|      You enforced a specific xc-type in the INCAR file,                     |
|      a different type was found on the POTCAR file                          |
|          I HOPE YOU KNOW, WHAT YOU ARE  DOING                               |
|                                                                             |
 ----------------------------------------------------------------------------- 

  PAW_PBE Cd 06Sep2000                  :
 energy of atom  1       EATOM=-1293.1815
 kinetic energy error for atom=    0.0063 (will be added to EATOM!!)
  PAW_PBE Te 08Apr2002                  :
 energy of atom  2       EATOM= -223.2721
 kinetic energy error for atom=    0.0007 (will be added to EATOM!!)
 
 
 POSCAR: CdTe (ICSD, 295K, Rabadanov 2001)       
  positions in direct lattice
  velocities in cartesian coordinates
 exchange correlation table for  LEXCH =       14
   RHO(1)=    0.500       N(1)  =     2000
   RHO(2)=  100.500       N(2)  =     4000
 


--------------------------------------------------------------------------------------------------------


 ion  position               nearest neighbor table
   1  0.000  0.000  0.000-   2 2.81   2 2.81   2 2.81   2 2.81
   2  0.250  0.250  0.250-   1 2.81   1 2.81   1 2.81   1 2.81
 
  LATTYP: Found a face centered cubic cell.
 ALAT       =     6.4827000000
  
  Lattice vectors:
  
 A1 = (   3.2413500000,   3.2413500000,   0.0000000000)
 A2 = (   3.2413500000,   0.0000000000,  -3.2413500000)
 A3 = (   0.0000000000,   3.2413500000,  -3.2413500000)


Analysis of symmetry for initial positions (statically):
=====================================================================
 Subroutine PRICEL returns:
 Original cell was already a primitive cell.
 

 Routine SETGRP: Setting up the symmetry group for a 
 face centered cubic supercell.


 Subroutine GETGRP returns: Found 24 space group operations
 (whereof 24 operations were pure point group operations)
 out of a pool of 48 trial point group operations.


The static configuration has the point symmetry T_d .


Analysis of symmetry for dynamics (positions and initial velocities):
=====================================================================
 Subroutine PRICEL returns:
 Original cell was already a primitive cell.
 

 Routine SETGRP: Setting up the symmetry group for a 
 face centered cubic supercell.


 Subroutine GETGRP returns: Found 24 space group operations
 (whereof 24 operations were pure point group operations)
 out of a pool of 48 trial point group operations.


The dynamic configuration has the point symmetry T_d .
 
 
 KPOINTS: Automatic mesh                          

Automatic generation of k-mesh.
Space group operators:
 irot       det(A)        alpha          n_x          n_y          n_z        tau_x        tau_y        tau_z
    1     1.000000     0.000000     1.000000     0.000000     0.000000     0.000000     0.000000     0.000000
    2     1.000000   120.000000    -0.577350    -0.577350     0.577350     0.000000     0.000000     0.000000
    3     1.000000   120.000000     0.577350     0.577350    -0.577350     0.000000     0.000000     0.000000
    4    -1.000000    90.000000    -1.000000     0.000000     0.000000     0.000000     0.000000     0.000000
    5    -1.000000   180.000000     0.707107     0.707107     0.000000     0.000000     0.000000     0.000000
    6    -1.000000    90.000000     0.000000     1.000000     0.000000     0.000000     0.000000     0.000000
    7     1.000000   180.000000     1.000000     0.000000     0.000000     0.000000     0.000000     0.000000
    8     1.000000   120.000000     0.577350     0.577350     0.577350     0.000000     0.000000     0.000000
    9     1.000000   120.000000    -0.577350     0.577350     0.577350     0.000000     0.000000     0.000000
   10    -1.000000    90.000000     1.000000     0.000000     0.000000     0.000000     0.000000     0.000000
   11    -1.000000    90.000000     0.000000     0.000000     1.000000     0.000000     0.000000     0.000000
   12    -1.000000   180.000000     0.707107     0.000000    -0.707107     0.000000     0.000000     0.000000
   13     1.000000   120.000000     0.577350    -0.577350    -0.577350     0.000000     0.000000     0.000000
   14     1.000000   120.000000     0.577350    -0.577350     0.577350     0.000000     0.000000     0.000000
   15     1.000000   180.000000     0.000000     0.000000     1.000000     0.000000     0.000000     0.000000
   16    -1.000000    90.000000     0.000000    -1.000000     0.000000     0.000000     0.000000     0.000000
   17    -1.000000   180.000000     0.000000    -0.707107     0.707107     0.000000     0.000000     0.000000
   18    -1.000000    90.000000     0.000000     0.000000    -1.000000     0.000000     0.000000     0.000000
   19     1.000000   120.000000    -0.577350    -0.577350    -0.577350     0.000000     0.000000     0.000000
   20     1.000000   180.000000     0.000000     1.000000     0.000000     0.000000     0.000000     0.000000
   21     1.000000   120.000000    -0.577350     0.577350    -0.577350     0.000000     0.000000     0.000000
   22    -1.000000   180.000000     0.707107    -0.707107     0.000000     0.000000     0.000000     0.000000
   23    -1.000000   180.000000     0.000000     0.707107     0.707107     0.000000     0.000000     0.000000
   24    -1.000000   180.000000     0.707107     0.000000     0.707107     0.000000     0.000000     0.000000
 
 Subroutine IBZKPT returns following result:
 ===========================================
 
 Found     16 irreducible k-points:
 
 Following reciprocal coordinates:
            Coordinates               Weight
  0.000000  0.000000  0.000000      1.000000
  0.166667  0.000000  0.000000      8.000000
  0.333333  0.000000  0.000000      8.000000
  0.500000  0.000000  0.000000      4.000000
  0.166667  0.166667  0.000000      6.000000
  0.333333  0.166667  0.000000     24.000000
  0.500000  0.166667  0.000000     24.000000
 -0.333333  0.166667  0.000000     24.000000
 -0.166667  0.166667  0.000000     12.000000
  0.333333  0.333333  0.000000      6.000000
  0.500000  0.333333  0.000000     24.000000
 -0.333333  0.333333  0.000000     12.000000
  0.500000  0.500000  0.000000      3.000000
  0.500000  0.333333  0.166667     24.000000
 -0.333333  0.333333  0.166667     24.000000
 -0.333333  0.500000  0.166667     12.000000
 
 Following cartesian coordinates:
            Coordinates               Weight
  0.000000  0.000000  0.000000      1.000000
  0.166667  0.166667  0.166667      8.000000
  0.333333  0.333333  0.333333      8.000000
  0.500000  0.500000  0.500000      4.000000
  0.333333  0.000000  0.000000      6.000000
  0.500000  0.166667  0.166667     24.000000
  0.666667  0.333333  0.333333     24.000000
 -0.166667 -0.500000 -0.500000     24.000000
  0.000000 -0.333333 -0.333333     12.000000
  0.666667  0.000000  0.000000      6.000000
  0.833333  0.166667  0.166667     24.000000
  0.000000 -0.666667 -0.666667     12.000000
  1.000000  0.000000  0.000000      3.000000
  0.666667  0.333333  0.000000     24.000000
 -0.166667 -0.500000 -0.833333     24.000000
  0.000000 -0.666667 -1.000000     12.000000
 


--------------------------------------------------------------------------------------------------------




 Dimension of arrays:
   k-points           NKPTS =     16   k-points in BZ     NKDIM =     16   number of bands    NBANDS=     64
   number of dos      NEDOS =    301   number of ions     NIONS =      2
   non local maximal  LDIM  =      6   non local SUM 2l+1 LMDIM =     18
   total plane-waves  NPLWV =  46656
   max r-space proj   IRMAX =      1   max aug-charges    IRDMAX=  40037
   dimension x,y,z NGX =    36 NGY =   36 NGZ =   36
   dimension x,y,z NGXF=    72 NGYF=   72 NGZF=   72
   support grid    NGXF=    72 NGYF=   72 NGZF=   72
   ions per type =               1   1
 NGX,Y,Z   is equivalent  to a cutoff of  13.06, 13.06, 13.06 a.u.
 NGXF,Y,Z  is equivalent  to a cutoff of  26.11, 26.11, 26.11 a.u.


 I would recommend the setting:
   dimension x,y,z NGX =    33 NGY =   33 NGZ =   33
 SYSTEM =  Name                                    
 POSCAR =  CdTe (ICSD, 295K, Rabadanov 2001)       

 Startparameter for this run:
   NWRITE =      2    write-flag & timer
   PREC   = accura    normal or accurate (medium, high low for compatibility)
   ISTART =      0    job   : 0-new  1-cont  2-samecut
   ICHARG =      2    charge: 1-file 2-atom 10-const
   ISPIN  =      1    spin polarized calculation?
   LNONCOLLINEAR =      F non collinear calculations
   LSORBIT =      F    spin-orbit coupling
   INIWAV =      1    electr: 0-lowe 1-rand  2-diag
   LASPH  =      F    aspherical Exc in radial PAW
   METAGGA=      F    non-selfconsistent MetaGGA calc.

 Electronic Relaxation 1
   ENCUT  =  500.0 eV  36.75 Ry    6.06 a.u.   8.36  8.36  8.36*2*pi/ulx,y,z
   ENINI  =  500.0     initial cutoff
   ENAUG  =  456.1 eV  augmentation charge cutoff
   NELM   =     60;   NELMIN=  2; NELMDL=  0     # of ELM steps 
   EDIFF  = 0.1E-05   stopping-criterion for ELM
   LREAL  =      F    real-space projection
   NLSPLINE    = F    spline interpolate recip. space projectors
   LCOMPAT=      F    compatible to vasp.4.4
   GGA_COMPAT  = T    GGA compatible to vasp.4.4-vasp.4.6
   LMAXPAW     = -100 max onsite density
   LMAXMIX     =    2 max onsite mixed and CHGCAR
   VOSKOWN=      0    Vosko Wilk Nusair interpolation
   ROPT   =    0.00000   0.00000
 Ionic relaxation
   EDIFFG = -.5E-02   stopping-criterion for IOM
   NSW    =    100    number of steps for IOM
   NBLOCK =      1;   KBLOCK =    100    inner block; outer block 
   IBRION =      2    ionic relax: 0-MD 1-quasi-New 2-CG
   NFREE  =      1    steps in history (QN), initial steepest desc. (CG)
   ISIF   =      3    stress and relaxation
   IWAVPR =     11    prediction:  0-non 1-charg 2-wave 3-comb
   ISYM   =      2    0-nonsym 1-usesym 2-fastsym
   LCORR  =      T    Harris-Foulkes like correction to forces

   POTIM  = 0.5000    time-step for ionic-motion
   TEIN   =    0.0    initial temperature
   TEBEG  =    0.0;   TEEND  =   0.0 temperature during run
   SMASS  =  -3.00    Nose mass-parameter (am)
   estimated Nose-frequenzy (Omega)   =  0.10E-29 period in steps =****** mass=  -0.480E-27a.u.
   SCALEE = 1.0000    scale energy and forces
   NPACO  =    256;   APACO  = 16.0  distance and # of slots for P.C.
   PSTRESS=    0.0 pullay stress

  Mass of Ions in am
   POMASS = 112.41127.60
  Ionic Valenz
   ZVAL   =  12.00  6.00
  Atomic Wigner-Seitz radii
   RWIGS  =  -1.00 -1.00
  virtual crystal weights 
   VCA    =   1.00  1.00
   NELECT =      18.0000    total number of electrons
   NUPDOWN=      -1.0000    fix difference up-down

 DOS related values:
   EMIN   =  10.00;   EMAX   =-10.00  energy-range for DOS
   EFERMI =   0.00
   ISMEAR =     0;   SIGMA  =   0.01  broadening in eV -4-tet -1-fermi 0-gaus

 Electronic relaxation 2 (details)
   IALGO  =     38    algorithm
   LDIAG  =      T    sub-space diagonalisation (order eigenvalues)
   LSUBROT=      F    optimize rotation matrix (better conditioning)
   TURBO    =      0    0=normal 1=particle mesh
   IRESTART =      0    0=no restart 2=restart with 2 vectors
   NREBOOT  =      0    no. of reboots
   NMIN     =      0    reboot dimension
   EREF     =   0.00    reference energy to select bands
   IMIX   =      4    mixing-type and parameters
     AMIX     =   0.40;   BMIX     =  1.00
     AMIX_MAG =   1.60;   BMIX_MAG =  1.00
     AMIN     =   0.01
     WC   =   100.;   INIMIX=   1;  MIXPRE=   1;  MAXMIX= -45

 Intra band minimization:
   WEIMIN = 0.0010     energy-eigenvalue tresh-hold
   EBREAK =  0.39E-08  absolut break condition
   DEPER  =   0.30     relativ break condition  

   TIME   =   0.40     timestep for ELM

  volume/ion in A,a.u.               =      34.05       229.81
  Fermi-wavevector in a.u.,A,eV,Ry     =   1.050581  1.985311 15.017042  1.103721
  Thomas-Fermi vector in A             =   2.185590
 
 Write flags
   LWAVE  =      T    write WAVECAR
   LCHARG =      T    write CHGCAR
   LVTOT  =      F    write LOCPOT, total local potential
   LVHAR  =      F    write LOCPOT, Hartree potential only
   LELF   =      F    write electronic localiz. function (ELF)
   LORBIT =     10    0 simple, 1 ext, 2 COOP (PROOUT)


 Dipole corrections
   LMONO  =      F    monopole corrections only (constant potential shift)
   LDIPOL =      F    correct potential (dipole corrections)
   IDIPOL =      0    1-x, 2-y, 3-z, 4-all directions 
   EPSILON=  1.0000000 bulk dielectric constant

 Core level calculations are selected ICORELEVEL =  1
 Exchange correlation treatment:
   GGA     =    PS    GGA type
   LEXCH   =    14    internal setting for exchange type
   VOSKOWN=      0    Vosko Wilk Nusair interpolation
   LHFCALC =     F    Hartree Fock is set to
   LHFONE  =     F    Hartree Fock one center treatment
   AEXX    =    0.0000 exact exchange contribution

 Linear response parameters
   LEPSILON=     F    determine dielectric tensor
   LRPA    =     F    only Hartree local field effects (RPA)
   LNABLA  =     F    use nabla operator in PAW spheres
   LVEL    =     F    velocity operator in full k-point grid
   LINTERFAST=   F  fast interpolation
   KINTER  =     0    interpolate to denser k-point grid
   CSHIFT  =0.1000    complex shift for real part using Kramers Kronig
   OMEGAMAX=  -1.0    maximum frequency
   DEG_THRESHOLD= 0.2000000E-02 threshold for treating states as degnerate
   RTIME   =    0.100 relaxation time in fs

 Orbital magnetization related:
   ORBITALMAG=     F  switch on orbital magnetization
   LCHIMAG   =     F  perturbation theory with respect to B field
   DQ        =  0.001000  dq finite difference perturbation B field



--------------------------------------------------------------------------------------------------------


 conjugate gradient relaxation of ions
 charge density and potential will be updated during run
 non-spin polarized calculation
 Variant of blocked Davidson
 Davidson routine will perform the subspace rotation
 perform sub-space diagonalisation
    after iterative eigenvector-optimisation
 modified Broyden-mixing scheme, WC =      100.0
 initial mixing is a Kerker type mixing with AMIX =  0.4000 and BMIX =      1.0000
 Hartree-type preconditioning will be used
 using additional bands           55
 reciprocal scheme for non local part
 use partial core corrections
 calculate Harris-corrections to forces 
   (improved forces if not selfconsistent)
 use gradient corrections 
 use of overlap-Matrix (Vanderbilt PP)
 Gauss-broadening in eV      SIGMA  =   0.01


--------------------------------------------------------------------------------------------------------


  energy-cutoff  :      500.00
  volume of cell :       68.11
      direct lattice vectors                 reciprocal lattice vectors
     3.241350000  3.241350000  0.000000000     0.154256714  0.154256714  0.154256714
     3.241350000  0.000000000 -3.241350000     0.154256714 -0.154256714 -0.154256714
     0.000000000  3.241350000 -3.241350000    -0.154256714  0.154256714 -0.154256714

  length of vectors
     4.583961130  4.583961130  4.583961130     0.267180466  0.267180466  0.267180466


 
 k-points in units of 2pi/SCALE and weight: Automatic mesh                          
   0.00000000  0.00000000  0.00000000       0.005
   0.16666667  0.16666667  0.16666667       0.037
   0.33333333  0.33333333  0.33333333       0.037
   0.50000000  0.50000000  0.50000000       0.019
   0.33333333  0.00000000  0.00000000       0.028
   0.50000000  0.16666667  0.16666667       0.111
   0.66666667  0.33333333  0.33333333       0.111
  -0.16666667 -0.50000000 -0.50000000       0.111
   0.00000000 -0.33333333 -0.33333333       0.056
   0.66666667  0.00000000  0.00000000       0.028
   0.83333333  0.16666667  0.16666667       0.111
   0.00000000 -0.66666667 -0.66666667       0.056
   1.00000000  0.00000000  0.00000000       0.014
   0.66666667  0.33333333  0.00000000       0.111
  -0.16666667 -0.50000000 -0.83333333       0.111
   0.00000000 -0.66666667 -1.00000000       0.056
 
 k-points in reciprocal lattice and weights: Automatic mesh                          
   0.00000000  0.00000000  0.00000000       0.005
   0.16666667  0.00000000  0.00000000       0.037
   0.33333333  0.00000000  0.00000000       0.037
   0.50000000  0.00000000  0.00000000       0.019
   0.16666667  0.16666667  0.00000000       0.028
   0.33333333  0.16666667  0.00000000       0.111
   0.50000000  0.16666667  0.00000000       0.111
  -0.33333333  0.16666667  0.00000000       0.111
  -0.16666667  0.16666667  0.00000000       0.056
   0.33333333  0.33333333  0.00000000       0.028
   0.50000000  0.33333333  0.00000000       0.111
  -0.33333333  0.33333333  0.00000000       0.056
   0.50000000  0.50000000  0.00000000       0.014
   0.50000000  0.33333333  0.16666667       0.111
  -0.33333333  0.33333333  0.16666667       0.111
  -0.33333333  0.50000000  0.16666667       0.056
 
 position of ions in fractional coordinates (direct lattice) 
   0.00000000  0.00000000  0.00000000
   0.25000000  0.25000000  0.25000000
 
 position of ions in cartesian coordinates  (Angst):
   0.00000000  0.00000000  0.00000000
   1.62067500  1.62067500 -1.62067500
 


--------------------------------------------------------------------------------------------------------


 k-point  1 :   0.0000 0.0000 0.0000  plane waves:    1759
 k-point  2 :   0.1667 0.0000 0.0000  plane waves:    1747
 k-point  3 :   0.3333 0.0000 0.0000  plane waves:    1730
 k-point  4 :   0.5000 0.0000 0.0000  plane waves:    1718
 k-point  5 :   0.1667 0.1667 0.0000  plane waves:    1736
 k-point  6 :   0.3333 0.1667 0.0000  plane waves:    1729
 k-point  7 :   0.5000 0.1667 0.0000  plane waves:    1739
 k-point  8 :  -0.3333 0.1667 0.0000  plane waves:    1732
 k-point  9 :  -0.1667 0.1667 0.0000  plane waves:    1735
 k-point 10 :   0.3333 0.3333 0.0000  plane waves:    1728
 k-point 11 :   0.5000 0.3333 0.0000  plane waves:    1723
 k-point 12 :  -0.3333 0.3333 0.0000  plane waves:    1726
 k-point 13 :   0.5000 0.5000 0.0000  plane waves:    1724
 k-point 14 :   0.5000 0.3333 0.1667  plane waves:    1724
 k-point 15 :  -0.3333 0.3333 0.1667  plane waves:    1726
 k-point 16 :  -0.3333 0.5000 0.1667  plane waves:    1722

 maximum and minimum number of plane-waves per node :      1759     1718

 maximum number of plane-waves:      1759
 maximum index in each direction: 
   IXMAX=    8   IYMAX=    8   IZMAX=    8
   IXMIN=   -8   IYMIN=   -8   IZMIN=   -8

 NGX is ok and might be reduce to  34
 NGY is ok and might be reduce to  34
 NGZ is ok and might be reduce to  34

 serial   3D FFT for wavefunctions
 parallel 3D FFT for charge:
    minimum data exchange during FFTs selected (reduces bandwidth)


 total amount of memory used by VASP on root node    41830. kBytes
========================================================================

   base      :      30000. kBytes
   nonl-proj :       8314. kBytes
   fftplans  :        531. kBytes
   grid      :       2479. kBytes
   one-center:         31. kBytes
   wavefun   :        475. kBytes
 
     INWAV:  cpu time    0.00: real time    0.00
 Broyden mixing: mesh for mixing (old mesh)
   NGX = 17   NGY = 17   NGZ = 17
  (NGX  = 72   NGY  = 72   NGZ  = 72)
  gives a total of   4913 points

 initial charge density was supplied:
 charge density of overlapping atoms calculated
 number of electron      18.0000000 magnetization 
 keeping initial charge density in first step


--------------------------------------------------------------------------------------------------------


 Maximum index for augmentation-charges         1891 (set IRDMAX)


--------------------------------------------------------------------------------------------------------


 First call to EWALD:  gamma=   0.434
 Maximum number of real-space cells 3x 3x 3
 Maximum number of reciprocal cells 3x 3x 3

 FEWALD executed in parallel
    FEWALD:  cpu time    0.00: real time    0.00


----------------------------------------- Iteration    1(   1)  ---------------------------------------


    POTLOK:  cpu time    0.02: real time    0.02
    SETDIJ:  cpu time    0.01: real time    0.01
     EDDAV:  cpu time    1.14: real time    1.17
       DOS:  cpu time    0.00: real time    0.00
    --------------------------------------------
      LOOP:  cpu time    1.17: real time    1.20

 eigenvalue-minimisations  :  2048
 total energy-change (2. order) : 0.1938937E+02  (-0.9296345E+03)
 number of electron      18.0000000 magnetization 
 augmentation part       18.0000000 magnetization 

 Free energy of the ion-electron system (eV)
  ---------------------------------------------------
  alpha Z        PSCENC =        50.17222034
  Ewald energy   TEWEN  =     -1044.83138452
  -Hartree energ DENC   =      -510.12304479
  -exchange      EXHF   =         0.00000000
  -V(xc)+E(xc)   XCENC  =       -20.64396252
  PAW double counting   =      1402.45578259    -1331.56119850
  entropy T*S    EENTRO =        -0.00000000
  eigenvalues    EBANDS =       -42.28445491
  atomic energy  EATOM  =      1516.20541573
  ---------------------------------------------------
  free energy    TOTEN  =        19.38937342 eV

  energy without entropy =       19.38937342  energy(sigma->0) =       19.38937342


--------------------------------------------------------------------------------------------------------




----------------------------------------- Iteration    1(   2)  ---------------------------------------


     EDDAV:  cpu time    2.76: real time    2.76
       DOS:  cpu time    0.00: real time    0.00
    --------------------------------------------
      LOOP:  cpu time    2.76: real time    2.76

 eigenvalue-minimisations  :  3072
 total energy-change (2. order) :-0.2507537E+02  (-0.2507537E+02)
 number of electron      18.0000000 magnetization 
 augmentation part       18.0000000 magnetization 

 Free energy of the ion-electron system (eV)
  ---------------------------------------------------
  alpha Z        PSCENC =        50.17222034
  Ewald energy   TEWEN  =     -1044.83138452
  -Hartree energ DENC   =      -510.12304479
  -exchange      EXHF   =         0.00000000
  -V(xc)+E(xc)   XCENC  =       -20.64396252
  PAW double counting   =      1402.45578259    -1331.56119850
  entropy T*S    EENTRO =        -0.00000000
  eigenvalues    EBANDS =       -67.35982459
  atomic energy  EATOM  =      1516.20541573
  ---------------------------------------------------
  free energy    TOTEN  =        -5.68599626 eV

  energy without entropy =       -5.68599626  energy(sigma->0) =       -5.68599626


--------------------------------------------------------------------------------------------------------




----------------------------------------- Iteration    1(   3)  ---------------------------------------


     EDDAV:  cpu time    1.15: real time    1.15
       DOS:  cpu time    0.00: real time    0.00
    --------------------------------------------
      LOOP:  cpu time    1.15: real time    1.16

 eigenvalue-minimisations  :  2048
 total energy-change (2. order) :-0.5425557E-01  (-0.5425557E-01)
 number of electron      18.0000000 magnetization 
 augmentation part       18.0000000 magnetization 

 Free energy of the ion-electron system (eV)
  ---------------------------------------------------
  alpha Z        PSCENC =        50.17222034
  Ewald energy   TEWEN  =     -1044.83138452
  -Hartree energ DENC   =      -510.12304479
  -exchange      EXHF   =         0.00000000
  -V(xc)+E(xc)   XCENC  =       -20.64396252
  PAW double counting   =      1402.45578259    -1331.56119850
  entropy T*S    EENTRO =        -0.00000000
  eigenvalues    EBANDS =       -67.41408016
  atomic energy  EATOM  =      1516.20541573
  ---------------------------------------------------
  free energy    TOTEN  =        -5.74025182 eV

  energy without entropy =       -5.74025182  energy(sigma->0) =       -5.74025182


--------------------------------------------------------------------------------------------------------




----------------------------------------- Iteration    1(   4)  ---------------------------------------


     EDDAV:  cpu time    4.53: real time    4.54
       DOS:  cpu time    0.00: real time    0.00
    --------------------------------------------
      LOOP:  cpu time    4.53: real time    4.54

 eigenvalue-minimisations  :  4096
 total energy-change (2. order) :-0.3235672E-04  (-0.3235671E-04)
 number of electron      18.0000000 magnetization 
 augmentation part       18.0000000 magnetization 

 Free energy of the ion-electron system (eV)
  ---------------------------------------------------
  alpha Z        PSCENC =        50.17222034
  Ewald energy   TEWEN  =     -1044.83138452
  -Hartree energ DENC   =      -510.12304479
  -exchange      EXHF   =         0.00000000
  -V(xc)+E(xc)   XCENC  =       -20.64396252
  PAW double counting   =      1402.45578259    -1331.56119850
  entropy T*S    EENTRO =        -0.00000000
  eigenvalues    EBANDS =       -67.41411251
  atomic energy  EATOM  =      1516.20541573
  ---------------------------------------------------
  free energy    TOTEN  =        -5.74028418 eV

  energy without entropy =       -5.74028418  energy(sigma->0) =       -5.74028418


--------------------------------------------------------------------------------------------------------




----------------------------------------- Iteration    1(   5)  ---------------------------------------


     EDDAV:  cpu time    1.16: real time    1.16
       DOS:  cpu time    0.00: real time    0.00
    CHARGE:  cpu time    0.03: real time    0.03
    MIXING:  cpu time    0.00: real time    0.00
    --------------------------------------------
      LOOP:  cpu time    1.19: real time    1.19

 eigenvalue-minimisations  :  2048
 total energy-change (2. order) :-0.4183676E-10  (-0.4028093E-10)
 number of electron      17.9999997 magnetization 
 augmentation part        4.4423459 magnetization 

 Broyden mixing:
  rms(total) = 0.54304E+00    rms(broyden)= 0.54304E+00
  rms(prec ) = 0.85381E+00
  weight for this iteration     100.00

 Free energy of the ion-electron system (eV)
  ---------------------------------------------------
  alpha Z        PSCENC =        50.17222034
  Ewald energy   TEWEN  =     -1044.83138452
  -Hartree energ DENC   =      -510.12304479
  -exchange      EXHF   =         0.00000000
  -V(xc)+E(xc)   XCENC  =       -20.64396252
  PAW double counting   =      1402.45578259    -1331.56119850
  entropy T*S    EENTRO =        -0.00000000
  eigenvalues    EBANDS =       -67.41411251
  atomic energy  EATOM  =      1516.20541573
  ---------------------------------------------------
  free energy    TOTEN  =        -5.74028418 eV

  energy without entropy =       -5.74028418  energy(sigma->0) =       -5.74028418


--------------------------------------------------------------------------------------------------------




----------------------------------------- Iteration    1(   6)  ---------------------------------------


    POTLOK:  cpu time    0.01: real time    0.02
    SETDIJ:  cpu time    0.01: real time    0.01
     EDDAV:  cpu time    2.54: real time    2.54
       DOS:  cpu time    0.00: real time    0.00
    CHARGE:  cpu time    0.03: real time    0.03
    MIXING:  cpu time    0.00: real time    0.00
    --------------------------------------------
      LOOP:  cpu time    2.59: real time    2.59

 eigenvalue-minimisations  :  3136
 total energy-change (2. order) : 0.2349527E+00  (-0.8985822E-01)
 number of electron      17.9999996 magnetization 
 augmentation part        4.5477162 magnetization 

 Broyden mixing:
  rms(total) = 0.41608E+00    rms(broyden)= 0.41608E+00
  rms(prec ) = 0.47563E+00
  weight for this iteration     100.00

 eigenvalues of (default mixing * dielectric matrix)
  average eigenvalue GAMMA=   1.8852
  1.8852

 Free energy of the ion-electron system (eV)
  ---------------------------------------------------
  alpha Z        PSCENC =        50.17222034
  Ewald energy   TEWEN  =     -1044.83138452
  -Hartree energ DENC   =      -503.32777092
  -exchange      EXHF   =         0.00000000
  -V(xc)+E(xc)   XCENC  =       -20.76844817
  PAW double counting   =      1502.41373984    -1431.00365173
  entropy T*S    EENTRO =        -0.00000000
  eigenvalues    EBANDS =       -74.36545205
  atomic energy  EATOM  =      1516.20541573
  ---------------------------------------------------
  free energy    TOTEN  =        -5.50533149 eV

  energy without entropy =       -5.50533149  energy(sigma->0) =       -5.50533149


--------------------------------------------------------------------------------------------------------




----------------------------------------- Iteration    1(   7)  ---------------------------------------


    POTLOK:  cpu time    0.01: real time    0.02
    SETDIJ:  cpu time    0.01: real time    0.01
     EDDAV:  cpu time    3.20: real time    3.20
       DOS:  cpu time    0.00: real time    0.00
    CHARGE:  cpu time    0.03: real time    0.03
    MIXING:  cpu time    0.00: real time    0.00
    --------------------------------------------
      LOOP:  cpu time    3.25: real time    3.26

 eigenvalue-minimisations  :  3456
 total energy-change (2. order) : 0.2124173E-01  (-0.7004775E-02)
 number of electron      17.9999996 magnetization 
 augmentation part        4.5655580 magnetization 

 Broyden mixing:
  rms(total) = 0.19111E+00    rms(broyden)= 0.19111E+00
  rms(prec ) = 0.20798E+00
  weight for this iteration     100.00

 eigenvalues of (default mixing * dielectric matrix)
  average eigenvalue GAMMA=   1.7834
  1.0747  2.4922

 Free energy of the ion-electron system (eV)
  ---------------------------------------------------
  alpha Z        PSCENC =        50.17222034
  Ewald energy   TEWEN  =     -1044.83138452
  -Hartree energ DENC   =      -502.22616963
  -exchange      EXHF   =         0.00000000
  -V(xc)+E(xc)   XCENC  =       -20.73325006
  PAW double counting   =      1613.24578944    -1541.86966323
  entropy T*S    EENTRO =        -0.00000000
  eigenvalues    EBANDS =       -75.44704783
  atomic energy  EATOM  =      1516.20541573
  ---------------------------------------------------
  free energy    TOTEN  =        -5.48408976 eV

  energy without entropy =       -5.48408976  energy(sigma->0) =       -5.48408976


--------------------------------------------------------------------------------------------------------




----------------------------------------- Iteration    1(   8)  ---------------------------------------


    POTLOK:  cpu time    0.02: real time    0.02
    SETDIJ:  cpu time    0.01: real time    0.01
     EDDAV:  cpu time    3.58: real time    3.58
       DOS:  cpu time    0.00: real time    0.00
    CHARGE:  cpu time    0.03: real time    0.03
    MIXING:  cpu time    0.00: real time    0.00
    --------------------------------------------
      LOOP:  cpu time    3.63: real time    3.63

 eigenvalue-minimisations  :  3456
 total energy-change (2. order) : 0.1554269E-02  (-0.5375315E-03)
 number of electron      17.9999996 magnetization 
 augmentation part        4.5613471 magnetization 

 Broyden mixing:
  rms(total) = 0.14084E-01    rms(broyden)= 0.14083E-01
  rms(prec ) = 0.22677E-01
  weight for this iteration     100.00

 eigenvalues of (default mixing * dielectric matrix)
  average eigenvalue GAMMA=   1.6740
  2.4281  1.2004  1.3935

 Free energy of the ion-electron system (eV)
  ---------------------------------------------------
  alpha Z        PSCENC =        50.17222034
  Ewald energy   TEWEN  =     -1044.83138452
  -Hartree energ DENC   =      -502.32687599
  -exchange      EXHF   =         0.00000000
  -V(xc)+E(xc)   XCENC  =       -20.68587858
  PAW double counting   =      1705.44217405    -1634.21310507
  entropy T*S    EENTRO =        -0.00000000
  eigenvalues    EBANDS =       -75.24510144
  atomic energy  EATOM  =      1516.20541573
  ---------------------------------------------------
  free energy    TOTEN  =        -5.48253549 eV

  energy without entropy =       -5.48253549  energy(sigma->0) =       -5.48253549


--------------------------------------------------------------------------------------------------------




----------------------------------------- Iteration    1(   9)  ---------------------------------------


    POTLOK:  cpu time    0.02: real time    0.02
    SETDIJ:  cpu time    0.01: real time    0.01
     EDDAV:  cpu time    2.95: real time    2.95
       DOS:  cpu time    0.00: real time    0.00
    CHARGE:  cpu time    0.03: real time    0.03
    MIXING:  cpu time    0.00: real time    0.00
    --------------------------------------------
      LOOP:  cpu time    3.00: real time    3.00

 eigenvalue-minimisations  :  3328
 total energy-change (2. order) :-0.1347289E-06  (-0.6610735E-04)
 number of electron      17.9999996 magnetization 
 augmentation part        4.5607871 magnetization 

 Broyden mixing:
  rms(total) = 0.44859E-02    rms(broyden)= 0.44859E-02
  rms(prec ) = 0.64323E-02
  weight for this iteration     100.00

 eigenvalues of (default mixing * dielectric matrix)
  average eigenvalue GAMMA=   1.8649
  2.7830  1.1189  1.7789  1.7789

 Free energy of the ion-electron system (eV)
  ---------------------------------------------------
  alpha Z        PSCENC =        50.17222034
  Ewald energy   TEWEN  =     -1044.83138452
  -Hartree energ DENC   =      -502.23621055
  -exchange      EXHF   =         0.00000000
  -V(xc)+E(xc)   XCENC  =       -20.68686710
  PAW double counting   =      1714.56327672    -1643.34797840
  entropy T*S    EENTRO =        -0.00000000
  eigenvalues    EBANDS =       -75.32100783
  atomic energy  EATOM  =      1516.20541573
  ---------------------------------------------------
  free energy    TOTEN  =        -5.48253562 eV

  energy without entropy =       -5.48253562  energy(sigma->0) =       -5.48253562


--------------------------------------------------------------------------------------------------------




----------------------------------------- Iteration    1(  10)  ---------------------------------------


    POTLOK:  cpu time    0.02: real time    0.02
    SETDIJ:  cpu time    0.00: real time    0.01
     EDDAV:  cpu time    2.85: real time    2.85
       DOS:  cpu time    0.00: real time    0.00
    CHARGE:  cpu time    0.03: real time    0.03
    MIXING:  cpu time    0.00: real time    0.00
    --------------------------------------------
      LOOP:  cpu time    2.90: real time    2.90

 eigenvalue-minimisations  :  3200
 total energy-change (2. order) :-0.3939075E-04  (-0.3428114E-05)
 number of electron      17.9999996 magnetization 
 augmentation part        4.5609103 magnetization 

 Broyden mixing:
  rms(total) = 0.21095E-02    rms(broyden)= 0.21095E-02
  rms(prec ) = 0.25773E-02
  weight for this iteration     100.00

 eigenvalues of (default mixing * dielectric matrix)
  average eigenvalue GAMMA=   1.8143
  2.7489  2.5273  1.0193  1.1692  1.6069

 Free energy of the ion-electron system (eV)
  ---------------------------------------------------
  alpha Z        PSCENC =        50.17222034
  Ewald energy   TEWEN  =     -1044.83138452
  -Hartree energ DENC   =      -502.24023828
  -exchange      EXHF   =         0.00000000
  -V(xc)+E(xc)   XCENC  =       -20.68505022
  PAW double counting   =      1716.46944116    -1645.25496226
  entropy T*S    EENTRO =        -0.00000000
  eigenvalues    EBANDS =       -75.31801695
  atomic energy  EATOM  =      1516.20541573
  ---------------------------------------------------
  free energy    TOTEN  =        -5.48257501 eV

  energy without entropy =       -5.48257501  energy(sigma->0) =       -5.48257501


--------------------------------------------------------------------------------------------------------




----------------------------------------- Iteration    1(  11)  ---------------------------------------


    POTLOK:  cpu time    0.01: real time    0.02
    SETDIJ:  cpu time    0.01: real time    0.01
     EDDAV:  cpu time    3.46: real time    3.46
       DOS:  cpu time    0.00: real time    0.00
    CHARGE:  cpu time    0.03: real time    0.03
    MIXING:  cpu time    0.00: real time    0.00
    --------------------------------------------
      LOOP:  cpu time    3.51: real time    3.51

 eigenvalue-minimisations  :  3328
 total energy-change (2. order) :-0.3789310E-05  (-0.6360624E-06)
 number of electron      17.9999996 magnetization 
 augmentation part        4.5608045 magnetization 

 Broyden mixing:
  rms(total) = 0.28328E-03    rms(broyden)= 0.28327E-03
  rms(prec ) = 0.46093E-03
  weight for this iteration     100.00

 eigenvalues of (default mixing * dielectric matrix)
  average eigenvalue GAMMA=   1.8015
  2.6258  2.3857  1.0093  1.1582  1.8149  1.8149

 Free energy of the ion-electron system (eV)
  ---------------------------------------------------
  alpha Z        PSCENC =        50.17222034
  Ewald energy   TEWEN  =     -1044.83138452
  -Hartree energ DENC   =      -502.27194421
  -exchange      EXHF   =         0.00000000
  -V(xc)+E(xc)   XCENC  =       -20.68405034
  PAW double counting   =      1715.17813719    -1643.96273457
  entropy T*S    EENTRO =        -0.00000000
  eigenvalues    EBANDS =       -75.28823841
  atomic energy  EATOM  =      1516.20541573
  ---------------------------------------------------
  free energy    TOTEN  =        -5.48257880 eV

  energy without entropy =       -5.48257880  energy(sigma->0) =       -5.48257880


--------------------------------------------------------------------------------------------------------




----------------------------------------- Iteration    1(  12)  ---------------------------------------


    POTLOK:  cpu time    0.02: real time    0.02
    SETDIJ:  cpu time    0.01: real time    0.01
     EDDAV:  cpu time    2.64: real time    2.64
       DOS:  cpu time    0.00: real time    0.00
    --------------------------------------------
      LOOP:  cpu time    2.71: real time    2.72

 eigenvalue-minimisations  :  3072
 total energy-change (2. order) :-0.5845320E-06  (-0.5220305E-07)
 number of electron      17.9999996 magnetization 
 augmentation part        4.5608045 magnetization 

 Free energy of the ion-electron system (eV)
  ---------------------------------------------------
  alpha Z        PSCENC =        50.17222034
  Ewald energy   TEWEN  =     -1044.83138452
  -Hartree energ DENC   =      -502.27404018
  -exchange      EXHF   =         0.00000000
  -V(xc)+E(xc)   XCENC  =       -20.68395388
  PAW double counting   =      1715.23904589    -1644.02355137
  entropy T*S    EENTRO =        -0.00000000
  eigenvalues    EBANDS =       -75.28633140
  atomic energy  EATOM  =      1516.20541573
  ---------------------------------------------------
  free energy    TOTEN  =        -5.48257939 eV

  energy without entropy =       -5.48257939  energy(sigma->0) =       -5.48257939


--------------------------------------------------------------------------------------------------------




 the core state eigenenergies are
   1-  1s -26513.8923  2s  -3931.0635  2p  -3526.3201  3s   -727.8868  3p   -595.1763
       3d   -387.6328  4s    -99.9753  4p    -61.0193
   2-  1s -31612.9798  2s  -4840.5626  2p  -4343.9580  3s   -956.7823  3p   -795.4400
       3d   -551.6899  4s   -156.2928  4p   -106.3328  4d    -33.6597
 
 E-fermi :   2.2936     XC(G=0):  -8.7764     alpha+bet : -7.4227


 k-point     1 :       0.0000    0.0000    0.0000
  band No.  band energies     occupation 
      1      -8.9998      2.00000
      2      -6.0502      2.00000
      3      -6.0502      2.00000
      4      -6.0502      2.00000
      5      -5.7862      2.00000
      6      -5.7862      2.00000
      7       2.2077      2.00000
      8       2.2077      2.00000
      9       2.2077      2.00000
     10       2.8652      0.00000
     11       6.7509      0.00000
     12       6.7509      0.00000
     13       6.7509      0.00000
     14       9.5036      0.00000
     15      11.5490      0.00000
     16      11.5490      0.00000
     17      12.1960      0.00000
     18      12.1960      0.00000
     19      12.1960      0.00000
     20      14.5150      0.00000
     21      21.9223      0.00000
     22      21.9223      0.00000
     23      21.9223      0.00000
     24      22.9171      0.00000
     25      22.9171      0.00000
     26      22.9171      0.00000
     27      23.9811      0.00000
     28      23.9811      0.00000
     29      23.9811      0.00000
     30      24.5882      0.00000
     31      24.5882      0.00000
     32      29.5668      0.00000
     33      30.5974      0.00000
     34      30.5974      0.00000
     35      30.5974      0.00000
     36      30.8470      0.00000
     37      31.4257      0.00000
     38      31.4257      0.00000
     39      33.3336      0.00000
     40      33.3336      0.00000
     41      33.3336      0.00000
     42      33.3977      0.00000
     43      33.3977      0.00000
     44      33.3977      0.00000
     45      34.8173      0.00000
     46      34.8173      0.00000
     47      34.8173      0.00000
     48      35.4129      0.00000
     49      35.4129      0.00000
     50      35.4129      0.00000
     51      36.4828      0.00000
     52      36.4828      0.00000
     53      36.4828      0.00000
     54      37.5500      0.00000
     55      39.4201      0.00000
     56      39.4201      0.00000
     57      41.1106      0.00000
     58      41.1106      0.00000
     59      41.1106      0.00000
     60      41.5686      0.00000
     61      41.5686      0.00000
     62      41.5686      0.00000
     63      41.7694      0.00000
     64      46.0171      0.00000

 k-point     2 :       0.1667    0.0000    0.0000
  band No.  band energies     occupation 
      1      -8.8983      2.00000
      2      -6.0313      2.00000
      3      -6.0313      2.00000
      4      -5.9684      2.00000
      5      -5.7874      2.00000
      6      -5.7874      2.00000
      7       0.4330      2.00000
      8       1.9767      2.00000
      9       1.9767      2.00000
     10       3.9852      0.00000
     11       6.8498      0.00000
     12       7.0912      0.00000
     13       7.0912      0.00000
     14      10.5057      0.00000
     15      10.6256      0.00000
     16      10.6256      0.00000
     17      11.8510      0.00000
     18      14.0248      0.00000
     19      14.0248      0.00000
     20      16.2443      0.00000
     21      19.3167      0.00000
     22      19.3167      0.00000
     23      19.8386      0.00000
     24      22.0881      0.00000
     25      23.2369      0.00000
     26      23.2369      0.00000
     27      24.0486      0.00000
     28      24.0486      0.00000
     29      25.4544      0.00000
     30      26.9967      0.00000
     31      26.9967      0.00000
     32      28.1682      0.00000
     33      28.1682      0.00000
     34      28.4221      0.00000
     35      30.0940      0.00000
     36      30.8717      0.00000
     37      30.8717      0.00000
     38      31.3298      0.00000
     39      31.5233      0.00000
     40      31.8867      0.00000
     41      32.0036      0.00000
     42      32.0036      0.00000
     43      33.9417      0.00000
     44      33.9417      0.00000
     45      34.8882      0.00000
     46      35.3011      0.00000
     47      35.3011      0.00000
     48      36.3566      0.00000
     49      36.4506      0.00000
     50      36.4506      0.00000
     51      37.4109      0.00000
     52      37.8646      0.00000
     53      37.8646      0.00000
     54      38.1236      0.00000
     55      39.7262      0.00000
     56      39.7262      0.00000
     57      39.9468      0.00000
     58      41.7611      0.00000
     59      41.7611      0.00000
     60      42.4126      0.00000
     61      44.1802      0.00000
     62      44.1802      0.00000
     63      45.4620      0.00000
     64      45.4620      0.00000

 k-point     3 :       0.3333    0.0000    0.0000
  band No.  band energies     occupation 
      1      -8.6945      2.00000
      2      -5.9988      2.00000
      3      -5.9988      2.00000
      4      -5.7834      2.00000
      5      -5.7834      2.00000
      6      -5.6911      2.00000
      7      -1.4159      2.00000
      8       1.5916      2.00000
      9       1.5916      2.00000
     10       4.0483      0.00000
     11       7.3733      0.00000
     12       7.3733      0.00000
     13       8.3661      0.00000
     14      10.1311      0.00000
     15      11.0344      0.00000
     16      11.0344      0.00000
     17      14.3137      0.00000
     18      15.8808      0.00000
     19      15.8808      0.00000
     20      16.5465      0.00000
     21      16.9753      0.00000
     22      16.9753      0.00000
     23      19.4970      0.00000
     24      22.4781      0.00000
     25      23.5685      0.00000
     26      23.5685      0.00000
     27      23.6429      0.00000
     28      24.0012      0.00000
     29      24.0012      0.00000
     30      24.6105      0.00000
     31      24.6105      0.00000
     32      27.2298      0.00000
     33      27.8756      0.00000
     34      29.0989      0.00000
     35      29.0989      0.00000
     36      29.3307      0.00000
     37      29.5781      0.00000
     38      29.5781      0.00000
     39      30.1818      0.00000
     40      30.9466      0.00000
     41      32.4086      0.00000
     42      32.4086      0.00000
     43      33.8287      0.00000
     44      33.8287      0.00000
     45      35.5021      0.00000
     46      35.6981      0.00000
     47      35.6981      0.00000
     48      36.6326      0.00000
     49      37.4344      0.00000
     50      37.4344      0.00000
     51      39.8813      0.00000
     52      39.8813      0.00000
     53      39.9238      0.00000
     54      41.2147      0.00000
     55      41.2147      0.00000
     56      41.7071      0.00000
     57      42.0532      0.00000
     58      42.6640      0.00000
     59      42.6640      0.00000
     60      43.0685      0.00000
     61      43.6517      0.00000
     62      43.6517      0.00000
     63      45.4110      0.00000
     64      46.2341      0.00000

 k-point     4 :       0.5000    0.0000    0.0000
  band No.  band energies     occupation 
      1      -8.5942      2.00000
      2      -5.9862      2.00000
      3      -5.9862      2.00000
      4      -5.7771      2.00000
      5      -5.7771      2.00000
      6      -5.4401      2.00000
      7      -2.2642      2.00000
      8       1.4248      2.00000
      9       1.4248      2.00000
     10       3.9367      0.00000
     11       7.3349      0.00000
     12       7.3349      0.00000
     13       9.1374      0.00000
     14      10.7262      0.00000
     15      12.4640      0.00000
     16      12.4640      0.00000
     17      13.4950      0.00000
     18      13.7973      0.00000
     19      13.7973      0.00000
     20      18.1086      0.00000
     21      19.6007      0.00000
     22      19.6007      0.00000
     23      20.3072      0.00000
     24      20.6139      0.00000
     25      20.6139      0.00000
     26      22.7163      0.00000
     27      23.4103      0.00000
     28      23.8700      0.00000
     29      24.4032      0.00000
     30      24.4032      0.00000
     31      24.6974      0.00000
     32      24.6974      0.00000
     33      27.7429      0.00000
     34      28.4158      0.00000
     35      28.4158      0.00000
     36      28.5434      0.00000
     37      29.0050      0.00000
     38      29.0050      0.00000
     39      29.1707      0.00000
     40      30.4085      0.00000
     41      33.7530      0.00000
     42      33.7530      0.00000
     43      34.8504      0.00000
     44      34.8504      0.00000
     45      35.8037      0.00000
     46      35.8037      0.00000
     47      36.2155      0.00000
     48      37.1169      0.00000
     49      37.1169      0.00000
     50      38.5968      0.00000
     51      39.9476      0.00000
     52      40.3913      0.00000
     53      40.3913      0.00000
     54      40.4263      0.00000
     55      40.4263      0.00000
     56      42.3760      0.00000
     57      42.9781      0.00000
     58      42.9781      0.00000
     59      44.0661      0.00000
     60      44.5980      0.00000
     61      45.0773      0.00000
     62      45.5823      0.00000
     63      45.5823      0.00000
     64      46.6642      0.00000

 k-point     5 :       0.1667    0.1667    0.0000
  band No.  band energies     occupation 
      1      -8.8648      2.00000
      2      -6.0121      2.00000
      3      -6.0121      2.00000
      4      -5.9698      2.00000
      5      -5.7947      2.00000
      6      -5.7784      2.00000
      7       0.4275      2.00000
      8       1.5938      2.00000
      9       1.5938      2.00000
     10       4.6408      0.00000
     11       5.8292      0.00000
     12       7.7055      0.00000
     13       7.7055      0.00000
     14       9.2973      0.00000
     15      11.2757      0.00000
     16      11.7901      0.00000
     17      12.9560      0.00000
     18      12.9560      0.00000
     19      13.5731      0.00000
     20      17.2461      0.00000
     21      19.1482      0.00000
     22      19.1482      0.00000
     23      19.6462      0.00000
     24      20.5327      0.00000
     25      22.9468      0.00000
     26      22.9468      0.00000
     27      23.3562      0.00000
     28      25.5501      0.00000
     29      27.0605      0.00000
     30      27.0605      0.00000
     31      27.2476      0.00000
     32      27.3009      0.00000
     33      27.9604      0.00000
     34      27.9604      0.00000
     35      28.5568      0.00000
     36      30.7217      0.00000
     37      30.7217      0.00000
     38      30.7318      0.00000
     39      31.8841      0.00000
     40      32.5360      0.00000
     41      32.5360      0.00000
     42      32.5871      0.00000
     43      33.3623      0.00000
     44      33.9849      0.00000
     45      34.0067      0.00000
     46      35.9306      0.00000
     47      36.1548      0.00000
     48      36.1548      0.00000
     49      36.2591      0.00000
     50      37.0523      0.00000
     51      37.0523      0.00000
     52      37.3446      0.00000
     53      38.5008      0.00000
     54      38.5008      0.00000
     55      39.6552      0.00000
     56      40.3028      0.00000
     57      40.3272      0.00000
     58      40.3272      0.00000
     59      41.9323      0.00000
     60      42.2690      0.00000
     61      43.8880      0.00000
     62      45.1859      0.00000
     63      45.1859      0.00000
     64      45.3508      0.00000

 k-point     6 :       0.3333    0.1667    0.0000
  band No.  band energies     occupation 
      1      -8.6961      2.00000
      2      -5.9869      2.00000
      3      -5.9754      2.00000
      4      -5.8393      2.00000
      5      -5.7725      2.00000
      6      -5.7155      2.00000
      7      -0.9576      2.00000
      8       1.0644      2.00000
      9       1.1817      2.00000
     10       5.0089      0.00000
     11       6.1725      0.00000
     12       7.8424      0.00000
     13       8.2720      0.00000
     14      10.0202      0.00000
     15      11.8677      0.00000
     16      11.9264      0.00000
     17      13.8036      0.00000
     18      14.9075      0.00000
     19      16.0441      0.00000
     20      16.1203      0.00000
     21      16.3237      0.00000
     22      19.3568      0.00000
     23      19.8630      0.00000
     24      20.1691      0.00000
     25      20.9601      0.00000
     26      22.9650      0.00000
     27      23.4419      0.00000
     28      24.7599      0.00000
     29      25.3982      0.00000
     30      25.5371      0.00000
     31      26.6809      0.00000
     32      26.8959      0.00000
     33      27.6786      0.00000
     34      28.2366      0.00000
     35      28.7683      0.00000
     36      29.2482      0.00000
     37      29.9251      0.00000
     38      30.1338      0.00000
     39      31.4175      0.00000
     40      31.9076      0.00000
     41      31.9812      0.00000
     42      32.6120      0.00000
     43      33.8963      0.00000
     44      34.3737      0.00000
     45      34.9316      0.00000
     46      34.9659      0.00000
     47      35.5991      0.00000
     48      37.0919      0.00000
     49      37.3038      0.00000
     50      37.5471      0.00000
     51      38.1232      0.00000
     52      39.1540      0.00000
     53      39.4406      0.00000
     54      40.2751      0.00000
     55      40.4691      0.00000
     56      41.5085      0.00000
     57      41.6516      0.00000
     58      42.4366      0.00000
     59      42.7974      0.00000
     60      43.0092      0.00000
     61      44.0989      0.00000
     62      44.5394      0.00000
     63      45.0862      0.00000
     64      45.9532      0.00000

 k-point     7 :       0.5000    0.1667    0.0000
  band No.  band energies     occupation 
      1      -8.5640      2.00000
      2      -5.9721      2.00000
      3      -5.9597      2.00000
      4      -5.8029      2.00000
      5      -5.7741      2.00000
      6      -5.4163      2.00000
      7      -2.0501      2.00000
      8       0.5320      2.00000
      9       1.0996      2.00000
     10       4.9140      0.00000
     11       6.8291      0.00000
     12       8.0888      0.00000
     13       8.7034      0.00000
     14      10.9202      0.00000
     15      12.1159      0.00000
     16      12.5567      0.00000
     17      13.4315      0.00000
     18      14.0730      0.00000
     19      16.6319      0.00000
     20      17.4113      0.00000
     21      17.9715      0.00000
     22      19.0891      0.00000
     23      19.9552      0.00000
     24      20.2916      0.00000
     25      21.1121      0.00000
     26      22.0245      0.00000
     27      22.8518      0.00000
     28      23.5298      0.00000
     29      23.9241      0.00000
     30      24.6765      0.00000
     31      25.1441      0.00000
     32      25.5369      0.00000
     33      25.9631      0.00000
     34      27.8236      0.00000
     35      28.0612      0.00000
     36      28.8568      0.00000
     37      29.0992      0.00000
     38      30.2370      0.00000
     39      31.5399      0.00000
     40      32.1830      0.00000
     41      32.6285      0.00000
     42      32.9897      0.00000
     43      33.8485      0.00000
     44      34.9986      0.00000
     45      35.6656      0.00000
     46      36.5720      0.00000
     47      36.6026      0.00000
     48      37.1578      0.00000
     49      37.3402      0.00000
     50      38.1931      0.00000
     51      39.0564      0.00000
     52      39.0986      0.00000
     53      40.7278      0.00000
     54      40.7336      0.00000
     55      41.2032      0.00000
     56      42.0561      0.00000
     57      42.1218      0.00000
     58      43.5491      0.00000
     59      44.1707      0.00000
     60      44.3836      0.00000
     61      45.1980      0.00000
     62      45.2073      0.00000
     63      45.6130      0.00000
     64      46.5589      0.00000

 k-point     8 :      -0.3333    0.1667    0.0000
  band No.  band energies     occupation 
      1      -8.5965      2.00000
      2      -5.9738      2.00000
      3      -5.9732      2.00000
      4      -5.7898      2.00000
      5      -5.7889      2.00000
      6      -5.5004      2.00000
      7      -1.7837      2.00000
      8       0.3957      2.00000
      9       1.4004      2.00000
     10       4.9704      0.00000
     11       7.0724      0.00000
     12       7.7851      0.00000
     13       8.4725      0.00000
     14      10.6262      0.00000
     15      11.2844      0.00000
     16      12.4646      0.00000
     17      13.5773      0.00000
     18      15.3000      0.00000
     19      16.4095      0.00000
     20      16.5153      0.00000
     21      17.6030      0.00000
     22      19.2362      0.00000
     23      20.1403      0.00000
     24      21.0729      0.00000
     25      21.5936      0.00000
     26      21.6566      0.00000
     27      22.3813      0.00000
     28      23.5806      0.00000
     29      23.7832      0.00000
     30      24.8211      0.00000
     31      25.0225      0.00000
     32      26.1021      0.00000
     33      27.6933      0.00000
     34      27.7125      0.00000
     35      28.2483      0.00000
     36      29.0338      0.00000
     37      29.3524      0.00000
     38      30.1274      0.00000
     39      31.6673      0.00000
     40      31.7269      0.00000
     41      32.6991      0.00000
     42      32.8576      0.00000
     43      33.2287      0.00000
     44      33.6554      0.00000
     45      34.9768      0.00000
     46      36.4403      0.00000
     47      37.2689      0.00000
     48      37.2760      0.00000
     49      38.3517      0.00000
     50      38.4806      0.00000
     51      39.4133      0.00000
     52      39.5157      0.00000
     53      39.8550      0.00000
     54      40.7083      0.00000
     55      41.1616      0.00000
     56      41.5024      0.00000
     57      42.0002      0.00000
     58      43.2611      0.00000
     59      43.2859      0.00000
     60      43.8850      0.00000
     61      44.5396      0.00000
     62      45.1859      0.00000
     63      46.2012      0.00000
     64      46.2489      0.00000

 k-point     9 :      -0.1667    0.1667    0.0000
  band No.  band energies     occupation 
      1      -8.7630      2.00000
      2      -6.0097      2.00000
      3      -5.9953      2.00000
      4      -5.8414      2.00000
      5      -5.7961      2.00000
      6      -5.7636      2.00000
      7      -0.5490      2.00000
      8       0.9359      2.00000
      9       1.8552      2.00000
     10       4.8102      0.00000
     11       6.8211      0.00000
     12       7.3219      0.00000
     13       7.6307      0.00000
     14       9.8699      0.00000
     15      11.1041      0.00000
     16      11.8664      0.00000
     17      12.9653      0.00000
     18      14.1801      0.00000
     19      15.9791      0.00000
     20      16.3429      0.00000
     21      18.3221      0.00000
     22      19.3381      0.00000
     23      19.3548      0.00000
     24      19.9347      0.00000
     25      21.1605      0.00000
     26      23.2159      0.00000
     27      24.6243      0.00000
     28      24.7331      0.00000
     29      25.7526      0.00000
     30      26.3803      0.00000
     31      26.3840      0.00000
     32      27.3893      0.00000
     33      27.9479      0.00000
     34      28.4668      0.00000
     35      28.9085      0.00000
     36      29.0806      0.00000
     37      29.6841      0.00000
     38      30.6489      0.00000
     39      31.2043      0.00000
     40      32.1399      0.00000
     41      32.4999      0.00000
     42      32.5537      0.00000
     43      33.1681      0.00000
     44      33.8923      0.00000
     45      34.8638      0.00000
     46      35.0692      0.00000
     47      35.2044      0.00000
     48      36.0926      0.00000
     49      37.1017      0.00000
     50      37.3257      0.00000
     51      38.1677      0.00000
     52      39.1124      0.00000
     53      39.7886      0.00000
     54      40.3919      0.00000
     55      40.3959      0.00000
     56      41.5484      0.00000
     57      42.0302      0.00000
     58      42.5991      0.00000
     59      42.9199      0.00000
     60      43.0817      0.00000
     61      43.4157      0.00000
     62      43.5937      0.00000
     63      44.5115      0.00000
     64      44.8260      0.00000

 k-point    10 :       0.3333    0.3333    0.0000
  band No.  band energies     occupation 
      1      -8.5979      2.00000
      2      -5.9295      2.00000
      3      -5.9295      2.00000
      4      -5.8802      2.00000
      5      -5.7629      2.00000
      6      -5.6015      2.00000
      7      -1.3074      2.00000
      8       0.6927      2.00000
      9       0.6927      2.00000
     10       4.8524      0.00000
     11       5.2739      0.00000
     12       9.4546      0.00000
     13       9.6582      0.00000
     14       9.6582      0.00000
     15      12.4577      0.00000
     16      14.0711      0.00000
     17      15.1271      0.00000
     18      15.1271      0.00000
     19      15.3622      0.00000
     20      15.8294      0.00000
     21      15.8294      0.00000
     22      17.1288      0.00000
     23      17.3425      0.00000
     24      21.6744      0.00000
     25      22.1075      0.00000
     26      22.9085      0.00000
     27      22.9085      0.00000
     28      23.6152      0.00000
     29      24.0212      0.00000
     30      24.0212      0.00000
     31      25.2947      0.00000
     32      27.5122      0.00000
     33      28.7235      0.00000
     34      28.7235      0.00000
     35      29.1299      0.00000
     36      29.6604      0.00000
     37      30.1972      0.00000
     38      30.1972      0.00000
     39      31.2253      0.00000
     40      31.9892      0.00000
     41      32.5153      0.00000
     42      32.5153      0.00000
     43      33.7768      0.00000
     44      33.9217      0.00000
     45      34.8449      0.00000
     46      34.8449      0.00000
     47      34.9767      0.00000
     48      35.6280      0.00000
     49      38.4838      0.00000
     50      38.8191      0.00000
     51      38.8191      0.00000
     52      39.2266      0.00000
     53      39.2813      0.00000
     54      40.6641      0.00000
     55      40.6641      0.00000
     56      40.8244      0.00000
     57      40.8604      0.00000
     58      43.0318      0.00000
     59      43.0318      0.00000
     60      43.1435      0.00000
     61      44.3265      0.00000
     62      46.1207      0.00000
     63      46.1207      0.00000
     64      47.3968      0.00000

 k-point    11 :       0.5000    0.3333    0.0000
  band No.  band energies     occupation 
      1      -8.5021      2.00000
      2      -5.9287      2.00000
      3      -5.9080      2.00000
      4      -5.8537      2.00000
      5      -5.7639      2.00000
      6      -5.3510      2.00000
      7      -1.9335      2.00000
      8       0.0217      2.00000
      9       0.5587      2.00000
     10       4.9433      0.00000
     11       5.8398      0.00000
     12       9.1068      0.00000
     13       9.8503      0.00000
     14      11.2106      0.00000
     15      12.8626      0.00000
     16      13.6289      0.00000
     17      14.2568      0.00000
     18      14.5636      0.00000
     19      16.5210      0.00000
     20      16.9326      0.00000
     21      17.4544      0.00000
     22      17.6084      0.00000
     23      18.3871      0.00000
     24      19.2271      0.00000
     25      20.8722      0.00000
     26      21.2550      0.00000
     27      21.6157      0.00000
     28      23.4235      0.00000
     29      24.3676      0.00000
     30      25.1610      0.00000
     31      25.6130      0.00000
     32      25.9903      0.00000
     33      26.1535      0.00000
     34      28.3786      0.00000
     35      28.9579      0.00000
     36      29.3091      0.00000
     37      29.7826      0.00000
     38      30.5945      0.00000
     39      31.1287      0.00000
     40      32.0751      0.00000
     41      32.1721      0.00000
     42      33.3950      0.00000
     43      33.5799      0.00000
     44      34.0412      0.00000
     45      35.5851      0.00000
     46      35.6107      0.00000
     47      36.7898      0.00000
     48      37.1298      0.00000
     49      37.2830      0.00000
     50      38.1218      0.00000
     51      38.6287      0.00000
     52      39.8523      0.00000
     53      40.1558      0.00000
     54      40.2117      0.00000
     55      41.5819      0.00000
     56      41.9753      0.00000
     57      42.5214      0.00000
     58      43.5280      0.00000
     59      43.7669      0.00000
     60      44.7252      0.00000
     61      45.0428      0.00000
     62      45.5486      0.00000
     63      46.9743      0.00000
     64      47.2286      0.00000

 k-point    12 :      -0.3333    0.3333    0.0000
  band No.  band energies     occupation 
      1      -8.5024      2.00000
      2      -5.9483      2.00000
      3      -5.9275      2.00000
      4      -5.8144      2.00000
      5      -5.7815      2.00000
      6      -5.2888      2.00000
      7      -1.9702      2.00000
      8      -0.4408      2.00000
      9       0.8708      2.00000
     10       5.1737      0.00000
     11       7.2603      0.00000
     12       8.9983      0.00000
     13       9.1132      0.00000
     14       9.6041      0.00000
     15      11.1564      0.00000
     16      14.3057      0.00000
     17      14.8352      0.00000
     18      15.6999      0.00000
     19      16.2451      0.00000
     20      16.5185      0.00000
     21      17.7106      0.00000
     22      19.4902      0.00000
     23      19.5659      0.00000
     24      19.7975      0.00000
     25      20.5255      0.00000
     26      21.5210      0.00000
     27      21.6261      0.00000
     28      22.8862      0.00000
     29      23.6416      0.00000
     30      24.0496      0.00000
     31      24.2743      0.00000
     32      25.1832      0.00000
     33      26.2998      0.00000
     34      28.6566      0.00000
     35      29.1129      0.00000
     36      29.3265      0.00000
     37      29.4266      0.00000
     38      29.8561      0.00000
     39      30.8662      0.00000
     40      31.5058      0.00000
     41      33.0604      0.00000
     42      33.1481      0.00000
     43      33.7062      0.00000
     44      34.9925      0.00000
     45      36.5808      0.00000
     46      36.6251      0.00000
     47      37.0471      0.00000
     48      37.5957      0.00000
     49      38.2109      0.00000
     50      38.7957      0.00000
     51      39.5582      0.00000
     52      39.5972      0.00000
     53      39.6717      0.00000
     54      40.2236      0.00000
     55      40.7939      0.00000
     56      41.3224      0.00000
     57      42.5553      0.00000
     58      42.5644      0.00000
     59      43.6960      0.00000
     60      44.6621      0.00000
     61      44.8238      0.00000
     62      46.0125      0.00000
     63      46.2120      0.00000
     64      46.2318      0.00000

 k-point    13 :       0.5000    0.5000    0.0000
  band No.  band energies     occupation 
      1      -8.4704      2.00000
      2      -5.8942      2.00000
      3      -5.8843      2.00000
      4      -5.8843      2.00000
      5      -5.7551      2.00000
      6      -5.3040      2.00000
      7      -2.1402      2.00000
      8       0.3234      2.00000
      9       0.3234      2.00000
     10       4.6965      0.00000
     11       4.8037      0.00000
     12      10.9270      0.00000
     13      11.2716      0.00000
     14      11.2716      0.00000
     15      13.0218      0.00000
     16      13.7223      0.00000
     17      13.7223      0.00000
     18      14.1778      0.00000
     19      15.9210      0.00000
     20      17.6190      0.00000
     21      17.8582      0.00000
     22      17.8582      0.00000
     23      18.2501      0.00000
     24      18.3457      0.00000
     25      19.4433      0.00000
     26      19.4433      0.00000
     27      20.7597      0.00000
     28      24.4984      0.00000
     29      24.6217      0.00000
     30      24.6217      0.00000
     31      26.9940      0.00000
     32      28.0322      0.00000
     33      28.0322      0.00000
     34      28.4697      0.00000
     35      28.9300      0.00000
     36      29.0254      0.00000
     37      29.1919      0.00000
     38      29.8327      0.00000
     39      29.8327      0.00000
     40      30.9265      0.00000
     41      33.6002      0.00000
     42      33.6647      0.00000
     43      33.7962      0.00000
     44      33.7962      0.00000
     45      35.2151      0.00000
     46      35.2608      0.00000
[...]
     43      33.5285      0.00000
     44      34.8032      0.00000
     45      36.3879      0.00000
     46      36.4393      0.00000
     47      36.8649      0.00000
     48      37.3966      0.00000
     49      38.0206      0.00000
     50      38.5990      0.00000
     51      39.3599      0.00000
     52      39.4065      0.00000
     53      39.4638      0.00000
     54      40.0208      0.00000
     55      40.5786      0.00000
     56      41.1118      0.00000
     57      42.3375      0.00000
     58      42.3424      0.00000
     59      43.4709      0.00000
     60      44.4217      0.00000
     61      44.5830      0.00000
     62      45.7830      0.00000
     63      45.9801      0.00000
     64      45.9941      0.00000

 k-point    13 :       0.5000    0.5000    0.0000
  band No.  band energies     occupation 
      1      -8.5036      2.00000
      2      -5.9369      2.00000
      3      -5.9286      2.00000
      4      -5.9286      2.00000
      5      -5.8018      2.00000
      6      -5.3584      2.00000
      7      -2.1708      2.00000
      8       0.2824      2.00000
      9       0.2824      2.00000
     10       4.6472      0.00000
     11       4.7393      0.00000
     12      10.8209      0.00000
     13      11.1679      0.00000
     14      11.1679      0.00000
     15      12.9426      0.00000
     16      13.6315      0.00000
     17      13.6315      0.00000
     18      14.0566      0.00000
     19      15.8277      0.00000
     20      17.5148      0.00000
     21      17.7659      0.00000
     22      17.7659      0.00000
     23      18.1525      0.00000
     24      18.2388      0.00000
     25      19.3310      0.00000
     26      19.3310      0.00000
     27      20.6253      0.00000
     28      24.3633      0.00000
     29      24.4789      0.00000
     30      24.4789      0.00000
     31      26.8347      0.00000
     32      27.8823      0.00000
     33      27.8823      0.00000
     34      28.3176      0.00000
     35      28.7766      0.00000
     36      28.8823      0.00000
     37      29.0324      0.00000
     38      29.6779      0.00000
     39      29.6779      0.00000
     40      30.7532      0.00000
     41      33.4282      0.00000
     42      33.4887      0.00000
     43      33.6212      0.00000
     44      33.6212      0.00000
     45      35.0446      0.00000
     46      35.0940      0.00000
     47      35.0940      0.00000
     48      35.1251      0.00000
     49      37.2979      0.00000
     50      37.5717      0.00000
     51      37.5717      0.00000
     52      40.3764      0.00000
     53      41.3697      0.00000
     54      41.9341      0.00000
     55      42.6333      0.00000
     56      42.8017      0.00000
     57      42.8017      0.00000
     58      43.8532      0.00000
     59      43.9040      0.00000
     60      43.9040      0.00000
     61      45.1128      0.00000
     62      45.7928      0.00000
     63      46.0054      0.00000
     64      46.0054      0.00000

 k-point    14 :       0.5000    0.3333    0.1667
  band No.  band energies     occupation 
      1      -8.5971      2.00000
      2      -5.9962      2.00000
      3      -5.9887      2.00000
      4      -5.8736      2.00000
      5      -5.8197      2.00000
      6      -5.5270      2.00000
      7      -1.6537      2.00000
      8       0.0675      2.00000
      9       0.8253      2.00000
     10       5.6369      0.00000
     11       6.1980      0.00000
     12       7.3620      0.00000
     13       9.4647      0.00000
     14      10.2465      0.00000
     15      12.3216      0.00000
     16      13.4861      0.00000
     17      13.6064      0.00000
     18      14.2900      0.00000
     19      15.9484      0.00000
     20      16.9139      0.00000
     21      17.3686      0.00000
     22      18.3560      0.00000
     23      19.8128      0.00000
     24      20.3531      0.00000
     25      20.4729      0.00000
     26      21.6087      0.00000
     27      21.8845      0.00000
     28      23.1493      0.00000
     29      24.3578      0.00000
     30      24.7986      0.00000
     31      25.3492      0.00000
     32      26.1786      0.00000
     33      26.7343      0.00000
     34      27.5814      0.00000
     35      28.2054      0.00000
     36      28.6622      0.00000
     37      29.6401      0.00000
     38      30.6460      0.00000
     39      30.8529      0.00000
     40      31.9826      0.00000
     41      32.7627      0.00000
     42      33.6383      0.00000
     43      33.7365      0.00000
     44      34.2415      0.00000
     45      34.9187      0.00000
     46      35.5098      0.00000
     47      35.6997      0.00000
     48      36.4565      0.00000
     49      37.3272      0.00000
     50      38.0996      0.00000
     51      38.4602      0.00000
     52      39.3216      0.00000
     53      40.0597      0.00000
     54      40.2871      0.00000
     55      41.3590      0.00000
     56      41.7253      0.00000
     57      42.1706      0.00000
     58      42.4666      0.00000
     59      43.5079      0.00000
     60      43.8006      0.00000
     61      44.4405      0.00000
     62      44.9807      0.00000
     63      45.2481      0.00000
     64      45.9846      0.00000

 k-point    15 :      -0.3333    0.3333    0.1667
  band No.  band energies     occupation 
      1      -8.5351      2.00000
      2      -5.9887      2.00000
      3      -5.9742      2.00000
      4      -5.8567      2.00000
      5      -5.8293      2.00000
      6      -5.3431      2.00000
      7      -2.0378      2.00000
      8      -0.2484      2.00000
      9       0.5430      2.00000
     10       5.7718      0.00000
     11       6.6834      0.00000
     12       7.8108      0.00000
     13       9.3333      0.00000
     14      10.0080      0.00000
     15      12.5185      0.00000
     16      13.2834      0.00000
     17      13.6588      0.00000
     18      15.9410      0.00000
     19      16.4164      0.00000
     20      16.6571      0.00000
     21      17.6313      0.00000
     22      18.5253      0.00000
     23      19.5839      0.00000
     24      20.2137      0.00000
     25      20.9518      0.00000
     26      21.4129      0.00000
     27      21.7796      0.00000
     28      22.1321      0.00000
     29      22.5248      0.00000
     30      24.5607      0.00000
     31      25.3761      0.00000
     32      25.4582      0.00000
     33      26.3599      0.00000
     34      26.7235      0.00000
     35      27.1364      0.00000
     36      28.7361      0.00000
     37      28.8615      0.00000
     38      31.7600      0.00000
     39      31.9957      0.00000
     40      32.3548      0.00000
     41      33.0482      0.00000
     42      33.1572      0.00000
     43      34.0275      0.00000
     44      34.3646      0.00000
     45      34.8174      0.00000
     46      35.6601      0.00000
     47      36.4220      0.00000
     48      36.8147      0.00000
     49      37.8591      0.00000
     50      38.7925      0.00000
     51      39.1013      0.00000
     52      39.3482      0.00000
     53      39.6284      0.00000
     54      40.7876      0.00000
     55      41.3186      0.00000
     56      41.5230      0.00000
     57      42.4805      0.00000
     58      43.1394      0.00000
     59      43.6865      0.00000
     60      44.0988      0.00000
     61      44.7582      0.00000
     62      44.9571      0.00000
     63      45.2748      0.00000
     64      45.5850      0.00000

 k-point    16 :      -0.3333    0.5000    0.1667
  band No.  band energies     occupation 
      1      -8.5048      2.00000
      2      -5.9608      2.00000
      3      -5.9599      2.00000
      4      -5.8799      2.00000
      5      -5.8195      2.00000
      6      -5.2966      2.00000
      7      -2.0822      2.00000
      8      -0.0718      2.00000
      9       0.0206      2.00000
     10       5.7858      0.00000
     11       5.8359      0.00000
     12       8.7336      0.00000
     13       9.0151      0.00000
     14      11.6099      0.00000
     15      13.1525      0.00000
     16      13.3895      0.00000
     17      13.5123      0.00000
     18      15.9046      0.00000
     19      16.7613      0.00000
     20      17.2484      0.00000
     21      17.2797      0.00000
     22      17.3989      0.00000
     23      17.5610      0.00000
     24      20.3033      0.00000
     25      20.4194      0.00000
     26      21.4166      0.00000
     27      21.7524      0.00000
     28      22.1183      0.00000
     29      22.6688      0.00000
     30      24.2976      0.00000
     31      24.9491      0.00000
     32      25.5085      0.00000
     33      26.6016      0.00000
     34      28.3603      0.00000
     35      28.4028      0.00000
     36      28.8634      0.00000
     37      29.8984      0.00000
     38      29.9280      0.00000
     39      30.7649      0.00000
     40      31.7853      0.00000
     41      32.4106      0.00000
     42      33.5272      0.00000
     43      34.6304      0.00000
     44      34.8139      0.00000
     45      35.0798      0.00000
     46      35.4150      0.00000
     47      36.8743      0.00000
     48      37.3589      0.00000
     49      37.5366      0.00000
     50      38.2469      0.00000
     51      38.4528      0.00000
     52      38.7881      0.00000
     53      39.6595      0.00000
     54      40.4263      0.00000
     55      40.7982      0.00000
     56      42.5968      0.00000
     57      42.7711      0.00000
     58      43.0476      0.00000
     59      44.2635      0.00000
     60      44.8718      0.00000
     61      44.9581      0.00000
     62      45.3492      0.00000
     63      45.4314      0.00000
     64      46.5371      0.00000


--------------------------------------------------------------------------------------------------------


 soft charge-density along one line, spin component           1
         0         1         2         3         4         5         6         7         8         9
 total charge-density along one line
 
 pseudopotential strength for first ion, spin component:           1
-17.965   0.000   0.000   0.000  -0.000 -18.005   0.000   0.000
  0.000 -17.965   0.000  -0.000  -0.000   0.000 -18.005   0.000
  0.000   0.000 -17.966   0.000  -0.000   0.000   0.000 -18.006
  0.000  -0.000   0.000 -17.965   0.000   0.000  -0.000   0.000
 -0.000  -0.000  -0.000   0.000 -17.966  -0.000  -0.000  -0.000
-18.005   0.000   0.000   0.000  -0.000 -18.025   0.000   0.000
  0.000 -18.005   0.000  -0.000  -0.000   0.000 -18.025   0.000
  0.000   0.000 -18.006   0.000  -0.000   0.000   0.000 -18.027
  0.000  -0.000   0.000 -18.005   0.000   0.000  -0.000   0.000
 -0.000  -0.000  -0.000   0.000 -18.006  -0.000  -0.000  -0.000
  0.000  -0.000   0.000  -0.000  -0.000   0.000  -0.000   0.000
  0.000  -0.000   0.000  -0.000  -0.000   0.000  -0.000   0.000
 -0.000   0.000  -0.000   0.003  -0.000  -0.000   0.000  -0.000
  0.003  -0.000  -0.000  -0.000  -0.000   0.003  -0.000  -0.000
 -0.000   0.003  -0.000   0.000   0.000  -0.000   0.003  -0.000
 -0.000   0.000  -0.000   0.003  -0.000  -0.000   0.000  -0.000
  0.003  -0.000  -0.000  -0.000  -0.000   0.002  -0.000  -0.000
 -0.000   0.003  -0.000   0.000   0.000  -0.000   0.002  -0.000
 total augmentation occupancy for first ion, spin component:           1
  4.054  -0.000  -0.000   0.000  -0.000  -1.996   0.000   0.000   0.000  -0.000   0.000  -0.000  -0.000   0.520   0.000  -0.000
  0.000   4.054  -0.000   0.000  -0.000   0.000  -1.996  -0.000  -0.000   0.000   0.000   0.000   0.000   0.000   0.520   0.000
  0.000   0.000   2.528   0.000   0.000  -0.000  -0.000  -0.527  -0.000   0.000  -0.000   0.000  -0.000   0.000  -0.000   0.000
 -0.000   0.000  -0.000   4.054   0.000  -0.000   0.000  -0.000  -1.996   0.000   0.000   0.000   0.520  -0.000   0.000  -0.072
  0.000   0.000   0.000   0.000   2.528   0.000   0.000   0.000   0.000  -0.527   0.000   0.000  -0.000  -0.000  -0.000   0.000
 -1.996   0.000   0.000  -0.000  -0.000   1.933  -0.000  -0.000   0.000  -0.000   0.000  -0.000   0.000  -0.497  -0.000   0.000
 -0.000  -1.996   0.000   0.000   0.000  -0.000   1.933  -0.000   0.000   0.000  -0.000   0.000   0.000   0.000  -0.497  -0.000
  0.000   0.000  -0.527   0.000  -0.000   0.000   0.000   0.518  -0.000  -0.000   0.000   0.000  -0.000   0.000  -0.000   0.000
 -0.000   0.000  -0.000  -1.996   0.000   0.000   0.000   0.000   1.933   0.000  -0.000  -0.000  -0.497  -0.000   0.000   0.083
  0.000   0.000   0.000   0.000  -0.527   0.000   0.000   0.000   0.000   0.518  -0.000  -0.000  -0.000  -0.000  -0.000   0.000
  0.000   0.000  -0.000   0.000   0.000   0.000  -0.000   0.000  -0.000  -0.000   2.798  -0.693   0.000   0.000   0.000   0.000
 -0.000   0.000   0.000   0.000   0.000   0.000   0.000  -0.000  -0.000   0.000  -0.693   0.212   0.000   0.000   0.000  -0.000
  0.000  -0.000   0.000   0.520   0.000   0.000   0.000  -0.000  -0.497   0.000   0.000   0.000   0.205   0.000  -0.000  -0.034
  0.520   0.000   0.000  -0.000   0.000  -0.497  -0.000   0.000   0.000   0.000   0.000   0.000   0.000   0.205   0.000  -0.000
  0.000   0.520  -0.000   0.000  -0.000   0.000  -0.497   0.000  -0.000   0.000  -0.000   0.000   0.000   0.000   0.205  -0.000
 -0.000   0.000  -0.000  -0.072   0.000  -0.000  -0.000   0.000   0.083  -0.000   0.000  -0.000  -0.034   0.000   0.000   0.007
 -0.072   0.000   0.000  -0.000  -0.000   0.083  -0.000  -0.000   0.000   0.000   0.000   0.000   0.000  -0.034  -0.000   0.000
 -0.000  -0.072   0.000   0.000   0.000   0.000   0.083   0.000  -0.000   0.000   0.000  -0.000   0.000  -0.000  -0.034   0.000


------------------------ aborting loop because EDIFF is reached ----------------------------------------


 


 total charge     
 
# of ion     s       p       d       tot
----------------------------------------
  1        0.471   0.315   9.528  10.314
  2        1.352   2.044   0.021   3.417
------------------------------------------------
tot        1.823   2.359   9.548  13.730
 
    CHARGE:  cpu time    0.02: real time    0.03
    FORLOC:  cpu time    0.00: real time    0.00
    FORNL :  cpu time    0.03: real time    0.03
    STRESS:  cpu time    0.21: real time    0.21
    FORCOR:  cpu time    0.01: real time    0.01
    FORHAR:  cpu time    0.00: real time    0.00
    MIXING:  cpu time    0.00: real time    0.00
    OFIELD:  cpu time    0.00: real time    0.00

  FORCE on cell =-STRESS in cart. coord.  units (eV):
  Direction    XX          YY          ZZ          XY          YZ          ZX
  --------------------------------------------------------------------------------------
  Alpha Z    49.80413    49.80413    49.80413
  Ewald    -347.42345  -347.42345  -347.42345    -0.00000    -0.00000    -0.00000
  Hartree   167.90077   167.90077   167.90077     0.00000    -0.00000    -0.00000
  E(xc)     -86.25906   -86.25906   -86.25906    -0.00000     0.00000     0.00000
  Local     -18.68494   -18.68494   -18.68494     0.00001    -0.00001    -0.00001
  n-local    22.43073    27.78156    26.88677    -1.76194    -3.05443    -1.15065
  augment     6.25972     6.25972     6.25972    -0.00001     0.00001     0.00001
  Kinetic   200.24386   203.82784   204.03478    -1.63226    -3.09196    -1.23797
  Fock        0.00000     0.00000     0.00000     0.00000     0.00000     0.00000
  -------------------------------------------------------------------------------------
  Total      -0.00098    -0.00098    -0.00098     0.00000     0.00000     0.00000
  in kB      -0.02289    -0.02289    -0.02289     0.00000     0.00000     0.00000
  external pressure =       -0.02 kB  Pullay stress =        0.00 kB


 VOLUME and BASIS-vectors are now :
 -----------------------------------------------------------------------------
  energy-cutoff  :      500.00
  volume of cell :       68.61
      direct lattice vectors                 reciprocal lattice vectors
     3.249315798  3.249315798  0.000000000     0.153878549  0.153878549  0.153878549
     3.249315798  0.000000000 -3.249315798     0.153878549 -0.153878549 -0.153878549
     0.000000000  3.249315798 -3.249315798    -0.153878549  0.153878549 -0.153878549

  length of vectors
     4.595226470  4.595226470  4.595226470     0.266525465  0.266525465  0.266525465


 FORCES acting on ions
    electron-ion (+dipol)            ewald-force                    non-local-force                 convergence-correction
 -----------------------------------------------------------------------------------------------
   -.338E-06 -.339E-06 0.339E-06   -.124E-14 0.429E-14 0.129E-14   -.451E-16 -.451E-16 0.278E-16   0.155E-08 0.155E-08 -.155E-08
   0.159E-06 0.160E-06 -.160E-06   -.499E-15 -.346E-14 -.517E-15   0.120E-16 -.139E-16 0.416E-16   0.476E-09 0.476E-09 -.476E-09
 -----------------------------------------------------------------------------------------------
   -.179E-06 -.179E-06 0.179E-06   -.174E-14 0.831E-15 0.771E-15   -.331E-16 -.590E-16 0.694E-16   0.203E-08 0.203E-08 -.203E-08
 
 
 POSITION                                       TOTAL-FORCE (eV/Angst)
 -----------------------------------------------------------------------------------
      0.00000      0.00000     -0.00000         0.000000      0.000000      0.000000
      1.62466      1.62466     -1.62466        -0.000000     -0.000000     -0.000000
 -----------------------------------------------------------------------------------
    total drift:                               -0.000000     -0.000000      0.000000


--------------------------------------------------------------------------------------------------------



  FREE ENERGIE OF THE ION-ELECTRON SYSTEM (eV)
  ---------------------------------------------------
  free  energy   TOTEN  =        -5.48306211 eV

  energy  without entropy=       -5.48306211  energy(sigma->0) =       -5.48306211
 
 d Force = 0.0000000E+00[ 0.000E+00, 0.000E+00]  d Energy = 0.4830355E-04-0.483E-04
 d Force = 0.0000000E+00[ 0.000E+00, 0.000E+00]  d Ewald  = 0.8089878E+00-0.809E+00


--------------------------------------------------------------------------------------------------------


    POTLOK:  cpu time    0.02: real time    0.02


--------------------------------------------------------------------------------------------------------




--------------------------------------------------------------------------------------------------------


  
 reached required accuracy - stopping structural energy minimisation
 writing wavefunctions
     LOOP+:  cpu time   12.95: real time   13.11
    4ORBIT:  cpu time    0.00: real time    0.00
 


 total charge     
 
# of ion     s       p       d       tot
----------------------------------------
  1        0.471   0.315   9.528  10.314
  2        1.352   2.044   0.021   3.417
------------------------------------------------
tot        1.823   2.359   9.548  13.730
 

 total amount of memory used by VASP on root node    41830. kBytes
========================================================================

   base      :      30000. kBytes
   nonl-proj :       8314. kBytes
   fftplans  :        531. kBytes
   grid      :       2479. kBytes
   one-center:         31. kBytes
   wavefun   :        475. kBytes
 
  
  
 General timing and accounting informations for this job:
 ========================================================
  
                  Total CPU time used (sec):       61.918
                            User time (sec):       57.257
                          System time (sec):        4.660
                         Elapsed time (sec):       62.783
  
                   Maximum memory used (kb):       82684.
                   Average memory used (kb):           0.
  
                          Minor page faults:      2531636
                          Major page faults:            1
                 Voluntary context switches:        11066
