  12  12   1   0
  0.2070820E+02  0.6290120E-09  0.6273890E-09  0.6297040E-09  0.5000000E-15
  1.000000000000000E-004
  CAR 
 Name                                    
     16.99510809    -22.64656975  301      1.41097349      1.00000000
    -22.647  0.0000E+00  0.0000E+00
    -22.514  0.0000E+00  0.0000E+00
    -22.382  0.0000E+00  0.0000E+00
    -22.250  0.0000E+00  0.0000E+00
    -22.118  0.0000E+00  0.0000E+00
    -21.986  0.0000E+00  0.0000E+00
    -21.854  0.0000E+00  0.0000E+00
    -21.722  0.0000E+00  0.0000E+00
    -21.589  0.0000E+00  0.0000E+00
    -21.457  0.0000E+00  0.0000E+00
    -21.325  0.0000E+00  0.0000E+00
    -21.193  0.0000E+00  0.0000E+00
    -21.061  0.0000E+00  0.0000E+00
    -20.929  0.0000E+00  0.0000E+00
    -20.797  0.1514E+02  0.2000E+01
    -20.664  0.0000E+00  0.2000E+01
    -20.532  0.0000E+00  0.2000E+01
    -20.400  0.0000E+00  0.2000E+01
    -20.268  0.0000E+00  0.2000E+01
    -20.136  0.0000E+00  0.2000E+01
    -20.004  0.0000E+00  0.2000E+01
    -19.872  0.0000E+00  0.2000E+01
    -19.740  0.0000E+00  0.2000E+01
    -19.607  0.0000E+00  0.2000E+01
    -19.475  0.0000E+00  0.2000E+01
    -19.343  0.0000E+00  0.2000E+01
    -19.211  0.0000E+00  0.2000E+01
    -19.079  0.0000E+00  0.2000E+01
    -18.947  0.0000E+00  0.2000E+01
    -18.815  0.0000E+00  0.2000E+01
    -18.682  0.0000E+00  0.2000E+01
    -18.550  0.0000E+00  0.2000E+01
    -18.418  0.0000E+00  0.2000E+01
    -18.286  0.0000E+00  0.2000E+01
    -18.154  0.0000E+00  0.2000E+01
    -18.022  0.0000E+00  0.2000E+01
    -17.890  0.0000E+00  0.2000E+01
    -17.757  0.0000E+00  0.2000E+01
    -17.625  0.0000E+00  0.2000E+01
    -17.493  0.0000E+00  0.2000E+01
    -17.361  0.0000E+00  0.2000E+01
    -17.229  0.2334E-16  0.2000E+01
    -17.097  0.3903E+02  0.7157E+01
    -16.965  0.0000E+00  0.1200E+02
    -16.832  0.0000E+00  0.1200E+02
    -16.700  0.0000E+00  0.1200E+02
    -16.568  0.0000E+00  0.1200E+02
    -16.436  0.0000E+00  0.1200E+02
    -16.304  0.0000E+00  0.1200E+02
    -16.172  0.0000E+00  0.1200E+02
    -16.040  0.0000E+00  0.1200E+02
    -15.907  0.0000E+00  0.1200E+02
    -15.775  0.0000E+00  0.1200E+02
    -15.643  0.0000E+00  0.1200E+02
    -15.511  0.0000E+00  0.1200E+02
    -15.379  0.0000E+00  0.1200E+02
    -15.247  0.0000E+00  0.1200E+02
    -15.115  0.0000E+00  0.1200E+02
    -14.983  0.0000E+00  0.1200E+02
    -14.850  0.0000E+00  0.1200E+02
    -14.718  0.0000E+00  0.1200E+02
    -14.586  0.0000E+00  0.1200E+02
    -14.454  0.0000E+00  0.1200E+02
    -14.322  0.0000E+00  0.1200E+02
    -14.190  0.0000E+00  0.1200E+02
    -14.058  0.0000E+00  0.1200E+02
    -13.925  0.0000E+00  0.1200E+02
    -13.793  0.0000E+00  0.1200E+02
    -13.661  0.0000E+00  0.1200E+02
    -13.529  0.0000E+00  0.1200E+02
    -13.397  0.1157E-10  0.1200E+02
    -13.265  0.1479E+02  0.1400E+02
    -13.133  0.0000E+00  0.1400E+02
    -13.000  0.0000E+00  0.1400E+02
    -12.868  0.0000E+00  0.1400E+02
    -12.736  0.0000E+00  0.1400E+02
    -12.604  0.0000E+00  0.1400E+02
    -12.472  0.0000E+00  0.1400E+02
    -12.340  0.7810E-01  0.1401E+02
    -12.208  0.1699E+01  0.1429E+02
    -12.075  0.3961E+01  0.1505E+02
    -11.943  0.3324E+01  0.1587E+02
    -11.811  0.4468E+01  0.1666E+02
    -11.679  0.3651E+01  0.1750E+02
    -11.547  0.1977E+01  0.1802E+02
    -11.415  0.9068E+01  0.1924E+02
    -11.283  0.2974E+01  0.1999E+02
    -11.150  0.0000E+00  0.2000E+02
    -11.018  0.0000E+00  0.2000E+02
    -10.886  0.0000E+00  0.2000E+02
    -10.754  0.0000E+00  0.2000E+02
    -10.622  0.0000E+00  0.2000E+02
    -10.490  0.0000E+00  0.2000E+02
    -10.358  0.0000E+00  0.2000E+02
    -10.226  0.0000E+00  0.2000E+02
    -10.093  0.0000E+00  0.2000E+02
     -9.961  0.0000E+00  0.2000E+02
     -9.829  0.0000E+00  0.2000E+02
     -9.697  0.0000E+00  0.2000E+02
     -9.565  0.0000E+00  0.2000E+02
     -9.433  0.0000E+00  0.2000E+02
     -9.301  0.1792E-07  0.2000E+02
     -9.168  0.1098E+02  0.2178E+02
     -9.036  0.1335E+02  0.2376E+02
     -8.904  0.0000E+00  0.2400E+02
     -8.772  0.0000E+00  0.2400E+02
     -8.640  0.0000E+00  0.2400E+02
     -8.508  0.0000E+00  0.2400E+02
     -8.376  0.0000E+00  0.2400E+02
     -8.243  0.0000E+00  0.2400E+02
     -8.111  0.0000E+00  0.2400E+02
     -7.979  0.7007E-01  0.2401E+02
     -7.847  0.4204E+00  0.2406E+02
     -7.715  0.8409E+00  0.2418E+02
     -7.583  0.5627E+00  0.2425E+02
     -7.451  0.1142E-02  0.2431E+02
     -7.318  0.2109E+00  0.2456E+02
     -7.186  0.8407E+00  0.2489E+02
     -7.054  0.9933E+01  0.2624E+02
     -6.922  0.1731E+01  0.2728E+02
     -6.790  0.1628E-03  0.2744E+02
     -6.658  0.2103E+00  0.2769E+02
     -6.526  0.4204E+00  0.2782E+02
     -6.393  0.8409E+00  0.2794E+02
     -6.261  0.3058E-03  0.2794E+02
     -6.129  0.0000E+00  0.2799E+02
     -5.997  0.7007E-01  0.2800E+02
     -5.865  0.0000E+00  0.2800E+02
     -5.733  0.0000E+00  0.2800E+02
     -5.601  0.0000E+00  0.2800E+02
     -5.469  0.0000E+00  0.2800E+02
     -5.336  0.0000E+00  0.2800E+02
     -5.204  0.0000E+00  0.2800E+02
     -5.072  0.0000E+00  0.2800E+02
     -4.940  0.0000E+00  0.2800E+02
     -4.808  0.7393E+00  0.2810E+02
     -4.676  0.1219E+02  0.3200E+02
     -4.544  0.0000E+00  0.3200E+02
     -4.411  0.0000E+00  0.3200E+02
     -4.279  0.0000E+00  0.3200E+02
     -4.147  0.0000E+00  0.3200E+02
     -4.015  0.0000E+00  0.3200E+02
     -3.883  0.0000E+00  0.3200E+02
     -3.751  0.0000E+00  0.3200E+02
     -3.619  0.0000E+00  0.3200E+02
     -3.486  0.0000E+00  0.3200E+02
     -3.354  0.0000E+00  0.3200E+02
     -3.222  0.0000E+00  0.3200E+02
     -3.090  0.0000E+00  0.3200E+02
     -2.958  0.0000E+00  0.3200E+02
     -2.826  0.8040E-01  0.3201E+02
     -2.694  0.1588E+01  0.3234E+02
     -2.561  0.1787E+01  0.3284E+02
     -2.429  0.1239E+01  0.3311E+02
     -2.297  0.2194E+01  0.3353E+02
     -2.165  0.3004E+01  0.3408E+02
     -2.033  0.2844E+01  0.3471E+02
     -1.901  0.9822E+00  0.3494E+02
     -1.769  0.2623E-10  0.3500E+02
     -1.636  0.2030E+00  0.3504E+02
     -1.504  0.2809E+01  0.3559E+02
     -1.372  0.5926E+01  0.3663E+02
     -1.240  0.3130E+01  0.3759E+02
     -1.108  0.2195E+01  0.3823E+02
     -0.976  0.3906E+01  0.3899E+02
     -0.844  0.3266E+01  0.3972E+02
     -0.712  0.6243E+01  0.4109E+02
     -0.579  0.3969E+01  0.4191E+02
     -0.447  0.5719E+01  0.4320E+02
     -0.315  0.5320E+01  0.4450E+02
     -0.183  0.4094E+01  0.4559E+02
     -0.051  0.7702E+01  0.4721E+02
      0.081  0.5598E+01  0.4808E+02
      0.213  0.2643E+01  0.4893E+02
      0.346  0.1154E+01  0.4929E+02
      0.478  0.1042E+01  0.4946E+02
      0.610  0.1639E+00  0.4963E+02
      0.742  0.5617E+00  0.4983E+02
      0.874  0.1692E+00  0.4990E+02
      1.006  0.3120E+00  0.4996E+02
      1.138  0.1401E+00  0.4999E+02
      1.271  0.6884E-01  0.5000E+02
      1.403  0.0000E+00  0.5000E+02
      1.535  0.0000E+00  0.5000E+02
      1.667  0.0000E+00  0.5000E+02
      1.799  0.0000E+00  0.5000E+02
      1.931  0.0000E+00  0.5000E+02
      2.063  0.0000E+00  0.5000E+02
      2.196  0.0000E+00  0.5000E+02
      2.328  0.0000E+00  0.5000E+02
      2.460  0.0000E+00  0.5000E+02
      2.592  0.0000E+00  0.5000E+02
      2.724  0.0000E+00  0.5000E+02
      2.856  0.0000E+00  0.5000E+02
      2.988  0.0000E+00  0.5000E+02
      3.121  0.0000E+00  0.5000E+02
      3.253  0.1749E-07  0.5000E+02
      3.385  0.3603E-01  0.5002E+02
      3.517  0.9548E+00  0.5022E+02
      3.649  0.4375E+00  0.5031E+02
      3.781  0.1908E+01  0.5063E+02
      3.913  0.6794E+00  0.5078E+02
      4.045  0.7255E+00  0.5096E+02
      4.178  0.6306E+00  0.5106E+02
      4.310  0.6964E+00  0.5115E+02
      4.442  0.4129E+00  0.5128E+02
      4.574  0.1271E+01  0.5156E+02
      4.706  0.1101E+01  0.5192E+02
      4.838  0.2197E+01  0.5240E+02
      4.970  0.1605E+01  0.5282E+02
      5.103  0.4204E+00  0.5298E+02
      5.235  0.1401E+00  0.5300E+02
      5.367  0.0000E+00  0.5300E+02
      5.499  0.3566E-07  0.5300E+02
      5.631  0.1519E-06  0.5301E+02
      5.763  0.2763E+00  0.5306E+02
      5.895  0.1669E+01  0.5331E+02
      6.028  0.2981E+01  0.5388E+02
      6.160  0.1864E+01  0.5432E+02
      6.292  0.2491E+01  0.5486E+02
      6.424  0.1729E+01  0.5527E+02
      6.556  0.2369E+01  0.5581E+02
      6.688  0.1871E+01  0.5630E+02
      6.820  0.4961E+01  0.5716E+02
      6.953  0.3478E+01  0.5779E+02
      7.085  0.3147E+01  0.5845E+02
      7.217  0.3970E+01  0.5924E+02
      7.349  0.2467E+01  0.6008E+02
      7.481  0.1885E+01  0.6044E+02
      7.613  0.3303E+01  0.6122E+02
      7.745  0.4066E+01  0.6204E+02
      7.878  0.3813E+01  0.6286E+02
      8.010  0.4066E+01  0.6363E+02
      8.142  0.2414E+01  0.6414E+02
      8.274  0.3885E+01  0.6517E+02
      8.406  0.4940E+01  0.6609E+02
      8.538  0.2021E+01  0.6667E+02
      8.670  0.2364E+01  0.6724E+02
      8.802  0.3745E+01  0.6804E+02
      8.935  0.3643E+01  0.6889E+02
      9.067  0.4239E+01  0.6987E+02
      9.199  0.4816E+01  0.7082E+02
      9.331  0.4415E+01  0.7181E+02
      9.463  0.5074E+01  0.7271E+02
      9.595  0.3709E+01  0.7348E+02
      9.727  0.3533E+01  0.7429E+02
      9.860  0.6323E+01  0.7548E+02
      9.992  0.3644E+01  0.7618E+02
     10.124  0.4845E+01  0.7706E+02
     10.256  0.2929E+01  0.7767E+02
     10.388  0.4239E+01  0.7858E+02
     10.520  0.2946E+01  0.7933E+02
     10.652  0.4729E+01  0.8026E+02
     10.785  0.2846E+01  0.8109E+02
     10.917  0.5062E+01  0.8211E+02
     11.049  0.4382E+01  0.8292E+02
     11.181  0.3660E+01  0.8375E+02
     11.313  0.2802E+01  0.8447E+02
     11.445  0.3815E+01  0.8525E+02
     11.577  0.3063E+01  0.8601E+02
     11.710  0.3101E+01  0.8681E+02
     11.842  0.2016E+01  0.8734E+02
     11.974  0.2269E+01  0.8789E+02
     12.106  0.3810E+01  0.8869E+02
     12.238  0.4422E+01  0.8960E+02
     12.370  0.4217E+01  0.9035E+02
     12.502  0.3763E+01  0.9117E+02
     12.635  0.4920E+01  0.9212E+02
     12.767  0.4726E+01  0.9295E+02
     12.899  0.4907E+01  0.9401E+02
     13.031  0.3174E+01  0.9479E+02
     13.163  0.5420E+01  0.9581E+02
     13.295  0.2963E+01  0.9651E+02
     13.427  0.3622E+01  0.9737E+02
     13.559  0.3442E+01  0.9808E+02
     13.692  0.4127E+01  0.9889E+02
     13.824  0.3813E+01  0.9966E+02
     13.956  0.3761E+01  0.1004E+03
     14.088  0.2835E+01  0.1011E+03
     14.220  0.3825E+01  0.1019E+03
     14.352  0.3113E+01  0.1025E+03
     14.484  0.3687E+01  0.1031E+03
     14.617  0.1814E+01  0.1035E+03
     14.749  0.8021E+00  0.1038E+03
     14.881  0.8551E+00  0.1039E+03
     15.013  0.3504E+00  0.1040E+03
     15.145  0.1936E+00  0.1040E+03
     15.277  0.0000E+00  0.1040E+03
     15.409  0.0000E+00  0.1040E+03
     15.542  0.0000E+00  0.1040E+03
     15.674  0.0000E+00  0.1040E+03
     15.806  0.0000E+00  0.1040E+03
     15.938  0.0000E+00  0.1040E+03
     16.070  0.0000E+00  0.1040E+03
     16.202  0.0000E+00  0.1040E+03
     16.334  0.0000E+00  0.1040E+03
     16.467  0.0000E+00  0.1040E+03
     16.599  0.0000E+00  0.1040E+03
     16.731  0.0000E+00  0.1040E+03
     16.863  0.0000E+00  0.1040E+03
     16.995  0.0000E+00  0.1040E+03
     16.99510809    -22.64656975  301      1.41097349      1.00000000
    -22.647  0.0000E+00  0.0000E+00  0.0000E+00
    -22.514  0.0000E+00  0.0000E+00  0.0000E+00
    -22.382  0.0000E+00  0.0000E+00  0.0000E+00
    -22.250  0.0000E+00  0.0000E+00  0.0000E+00
    -22.118  0.0000E+00  0.0000E+00  0.0000E+00
    -21.986  0.0000E+00  0.0000E+00  0.0000E+00
    -21.854  0.0000E+00  0.0000E+00  0.0000E+00
    -21.722  0.0000E+00  0.0000E+00  0.0000E+00
    -21.589  0.0000E+00  0.0000E+00  0.0000E+00
    -21.457  0.0000E+00  0.0000E+00  0.0000E+00
    -21.325  0.0000E+00  0.0000E+00  0.0000E+00
    -21.193  0.0000E+00  0.0000E+00  0.0000E+00
    -21.061  0.0000E+00  0.0000E+00  0.0000E+00
    -20.929  0.0000E+00  0.0000E+00  0.0000E+00
    -20.797  0.9086E+00  0.2784E+00  0.0000E+00
    -20.664  0.0000E+00  0.0000E+00  0.0000E+00
    -20.532  0.0000E+00  0.0000E+00  0.0000E+00
    -20.400  0.0000E+00  0.0000E+00  0.0000E+00
    -20.268  0.0000E+00  0.0000E+00  0.0000E+00
    -20.136  0.0000E+00  0.0000E+00  0.0000E+00
    -20.004  0.0000E+00  0.0000E+00  0.0000E+00
    -19.872  0.0000E+00  0.0000E+00  0.0000E+00
    -19.740  0.0000E+00  0.0000E+00  0.0000E+00
    -19.607  0.0000E+00  0.0000E+00  0.0000E+00
    -19.475  0.0000E+00  0.0000E+00  0.0000E+00
    -19.343  0.0000E+00  0.0000E+00  0.0000E+00
    -19.211  0.0000E+00  0.0000E+00  0.0000E+00
    -19.079  0.0000E+00  0.0000E+00  0.0000E+00
    -18.947  0.0000E+00  0.0000E+00  0.0000E+00
    -18.815  0.0000E+00  0.0000E+00  0.0000E+00
    -18.682  0.0000E+00  0.0000E+00  0.0000E+00
    -18.550  0.0000E+00  0.0000E+00  0.0000E+00
    -18.418  0.0000E+00  0.0000E+00  0.0000E+00
    -18.286  0.0000E+00  0.0000E+00  0.0000E+00
    -18.154  0.0000E+00  0.0000E+00  0.0000E+00
    -18.022  0.0000E+00  0.0000E+00  0.0000E+00
    -17.890  0.0000E+00  0.0000E+00  0.0000E+00
    -17.757  0.0000E+00  0.0000E+00  0.0000E+00
    -17.625  0.0000E+00  0.0000E+00  0.0000E+00
    -17.493  0.0000E+00  0.0000E+00  0.0000E+00
    -17.361  0.0000E+00  0.0000E+00  0.0000E+00
    -17.229  0.9977E-25  0.1455E-24  0.0000E+00
    -17.097  0.1913E-04  0.2469E-05  0.0000E+00
    -16.965  0.0000E+00  0.0000E+00  0.0000E+00
    -16.832  0.0000E+00  0.0000E+00  0.0000E+00
    -16.700  0.0000E+00  0.0000E+00  0.0000E+00
    -16.568  0.0000E+00  0.0000E+00  0.0000E+00
    -16.436  0.0000E+00  0.0000E+00  0.0000E+00
    -16.304  0.0000E+00  0.0000E+00  0.0000E+00
    -16.172  0.0000E+00  0.0000E+00  0.0000E+00
    -16.040  0.0000E+00  0.0000E+00  0.0000E+00
    -15.907  0.0000E+00  0.0000E+00  0.0000E+00
    -15.775  0.0000E+00  0.0000E+00  0.0000E+00
    -15.643  0.0000E+00  0.0000E+00  0.0000E+00
    -15.511  0.0000E+00  0.0000E+00  0.0000E+00
    -15.379  0.0000E+00  0.0000E+00  0.0000E+00
    -15.247  0.0000E+00  0.0000E+00  0.0000E+00
    -15.115  0.0000E+00  0.0000E+00  0.0000E+00
    -14.983  0.0000E+00  0.0000E+00  0.0000E+00
    -14.850  0.0000E+00  0.0000E+00  0.0000E+00
    -14.718  0.0000E+00  0.0000E+00  0.0000E+00
    -14.586  0.0000E+00  0.0000E+00  0.0000E+00
    -14.454  0.0000E+00  0.0000E+00  0.0000E+00
    -14.322  0.0000E+00  0.0000E+00  0.0000E+00
    -14.190  0.0000E+00  0.0000E+00  0.0000E+00
    -14.058  0.0000E+00  0.0000E+00  0.0000E+00
    -13.925  0.0000E+00  0.0000E+00  0.0000E+00
    -13.793  0.0000E+00  0.0000E+00  0.0000E+00
    -13.661  0.0000E+00  0.0000E+00  0.0000E+00
    -13.529  0.0000E+00  0.0000E+00  0.0000E+00
    -13.397  0.3808E-11  0.2154E-14  0.0000E+00
    -13.265  0.5047E+01  0.3310E-02  0.0000E+00
    -13.133  0.0000E+00  0.0000E+00  0.0000E+00
    -13.000  0.0000E+00  0.0000E+00  0.0000E+00
    -12.868  0.0000E+00  0.0000E+00  0.0000E+00
    -12.736  0.0000E+00  0.0000E+00  0.0000E+00
    -12.604  0.0000E+00  0.0000E+00  0.0000E+00
    -12.472  0.0000E+00  0.0000E+00  0.0000E+00
    -12.340  0.1223E-03  0.5145E-04  0.0000E+00
    -12.208  0.6410E-02  0.9417E-03  0.0000E+00
    -12.075  0.1952E-01  0.1534E-02  0.0000E+00
    -11.943  0.4180E-02  0.8242E-03  0.0000E+00
    -11.811  0.8341E-02  0.1547E-02  0.0000E+00
    -11.679  0.4052E-02  0.8445E-03  0.0000E+00
    -11.547  0.2003E-03  0.2061E-03  0.0000E+00
    -11.415  0.3597E-02  0.7401E-03  0.0000E+00
    -11.283  0.2936E-02  0.2449E-03  0.0000E+00
    -11.150  0.0000E+00  0.0000E+00  0.0000E+00
    -11.018  0.0000E+00  0.0000E+00  0.0000E+00
    -10.886  0.0000E+00  0.0000E+00  0.0000E+00
    -10.754  0.0000E+00  0.0000E+00  0.0000E+00
    -10.622  0.0000E+00  0.0000E+00  0.0000E+00
    -10.490  0.0000E+00  0.0000E+00  0.0000E+00
    -10.358  0.0000E+00  0.0000E+00  0.0000E+00
    -10.226  0.0000E+00  0.0000E+00  0.0000E+00
    -10.093  0.0000E+00  0.0000E+00  0.0000E+00
     -9.961  0.0000E+00  0.0000E+00  0.0000E+00
     -9.829  0.0000E+00  0.0000E+00  0.0000E+00
     -9.697  0.0000E+00  0.0000E+00  0.0000E+00
     -9.565  0.0000E+00  0.0000E+00  0.0000E+00
     -9.433  0.0000E+00  0.0000E+00  0.0000E+00
     -9.301  0.4742E-17  0.7455E-09  0.0000E+00
     -9.168  0.7743E-04  0.4628E+00  0.0000E+00
     -9.036  0.1335E-03  0.6012E+00  0.0000E+00
     -8.904  0.0000E+00  0.0000E+00  0.0000E+00
     -8.772  0.0000E+00  0.0000E+00  0.0000E+00
     -8.640  0.0000E+00  0.0000E+00  0.0000E+00
     -8.508  0.0000E+00  0.0000E+00  0.0000E+00
     -8.376  0.0000E+00  0.0000E+00  0.0000E+00
     -8.243  0.0000E+00  0.0000E+00  0.0000E+00
     -8.111  0.0000E+00  0.0000E+00  0.0000E+00
     -7.979  0.2682E-10  0.3425E-05  0.0000E+00
     -7.847  0.7956E-08  0.3651E-04  0.0000E+00
     -7.715  0.9579E-05  0.1275E-03  0.0000E+00
     -7.583  0.2650E-04  0.3194E-03  0.0000E+00
     -7.451  0.2034E-06  0.1823E-05  0.0000E+00
     -7.318  0.2069E-05  0.7915E-04  0.0000E+00
     -7.186  0.1946E-03  0.2581E-02  0.0000E+00
     -7.054  0.1100E+00  0.1783E+01  0.0000E+00
     -6.922  0.7021E-02  0.1191E+00  0.0000E+00
     -6.790  0.9277E-07  0.1538E-05  0.0000E+00
     -6.658  0.3048E-04  0.8402E-03  0.0000E+00
     -6.526  0.1199E-03  0.2241E-02  0.0000E+00
     -6.393  0.2760E-03  0.4641E-02  0.0000E+00
     -6.261  0.6291E-07  0.1076E-05  0.0000E+00
     -6.129  0.0000E+00  0.0000E+00  0.0000E+00
     -5.997  0.9764E-05  0.1817E-03  0.0000E+00
     -5.865  0.0000E+00  0.0000E+00  0.0000E+00
     -5.733  0.0000E+00  0.0000E+00  0.0000E+00
     -5.601  0.0000E+00  0.0000E+00  0.0000E+00
     -5.469  0.0000E+00  0.0000E+00  0.0000E+00
     -5.336  0.0000E+00  0.0000E+00  0.0000E+00
     -5.204  0.0000E+00  0.0000E+00  0.0000E+00
     -5.072  0.0000E+00  0.0000E+00  0.0000E+00
     -4.940  0.0000E+00  0.0000E+00  0.0000E+00
     -4.808  0.8327E-06  0.1978E+00  0.0000E+00
     -4.676  0.3350E-04  0.3288E+01  0.0000E+00
     -4.544  0.0000E+00  0.0000E+00  0.0000E+00
     -4.411  0.0000E+00  0.0000E+00  0.0000E+00
     -4.279  0.0000E+00  0.0000E+00  0.0000E+00
     -4.147  0.0000E+00  0.0000E+00  0.0000E+00
     -4.015  0.0000E+00  0.0000E+00  0.0000E+00
     -3.883  0.0000E+00  0.0000E+00  0.0000E+00
     -3.751  0.0000E+00  0.0000E+00  0.0000E+00
     -3.619  0.0000E+00  0.0000E+00  0.0000E+00
     -3.486  0.0000E+00  0.0000E+00  0.0000E+00
     -3.354  0.0000E+00  0.0000E+00  0.0000E+00
     -3.222  0.0000E+00  0.0000E+00  0.0000E+00
     -3.090  0.0000E+00  0.0000E+00  0.0000E+00
     -2.958  0.0000E+00  0.0000E+00  0.0000E+00
     -2.826  0.1073E-06  0.1040E-03  0.0000E+00
     -2.694  0.7140E-04  0.3078E-02  0.0000E+00
     -2.561  0.1240E-03  0.3172E-02  0.0000E+00
     -2.429  0.1037E-03  0.1969E-02  0.0000E+00
     -2.297  0.2299E-03  0.3393E-02  0.0000E+00
     -2.165  0.2275E-03  0.3674E-02  0.0000E+00
     -2.033  0.2841E-03  0.4739E-02  0.0000E+00
     -1.901  0.7328E-04  0.1392E-02  0.0000E+00
     -1.769  0.5640E-13  0.4485E-13  0.0000E+00
     -1.636  0.3272E-03  0.9577E-03  0.0000E+00
     -1.504  0.2803E-02  0.1272E-01  0.0000E+00
     -1.372  0.4765E-02  0.1945E-01  0.0000E+00
     -1.240  0.2216E-02  0.1326E-01  0.0000E+00
     -1.108  0.1097E-02  0.7516E-02  0.0000E+00
     -0.976  0.1514E-02  0.1230E-01  0.0000E+00
     -0.844  0.6495E-03  0.7872E-02  0.0000E+00
     -0.712  0.8976E-03  0.1403E-01  0.0000E+00
     -0.579  0.2564E-03  0.7445E-02  0.0000E+00
     -0.447  0.1515E-02  0.8516E-02  0.0000E+00
     -0.315  0.9499E-03  0.1124E-01  0.0000E+00
     -0.183  0.6142E-03  0.7974E-02  0.0000E+00
     -0.051  0.1713E-02  0.1892E-01  0.0000E+00
      0.081  0.2249E-02  0.6787E-02  0.0000E+00
      0.213  0.5694E-03  0.3178E-02  0.0000E+00
      0.346  0.3126E-04  0.8046E-03  0.0000E+00
      0.478  0.1132E-03  0.6024E-03  0.0000E+00
      0.610  0.1760E-05  0.6040E-04  0.0000E+00
      0.742  0.3404E-04  0.2019E-03  0.0000E+00
      0.874  0.7118E-05  0.1301E-03  0.0000E+00
      1.006  0.3664E-09  0.1150E-03  0.0000E+00
      1.138  0.1015E-10  0.3203E-04  0.0000E+00
      1.271  0.9185E-12  0.4202E-05  0.0000E+00
      1.403  0.0000E+00  0.0000E+00  0.0000E+00
      1.535  0.0000E+00  0.0000E+00  0.0000E+00
      1.667  0.0000E+00  0.0000E+00  0.0000E+00
      1.799  0.0000E+00  0.0000E+00  0.0000E+00
      1.931  0.0000E+00  0.0000E+00  0.0000E+00
      2.063  0.0000E+00  0.0000E+00  0.0000E+00
      2.196  0.0000E+00  0.0000E+00  0.0000E+00
      2.328  0.0000E+00  0.0000E+00  0.0000E+00
      2.460  0.0000E+00  0.0000E+00  0.0000E+00
      2.592  0.0000E+00  0.0000E+00  0.0000E+00
      2.724  0.0000E+00  0.0000E+00  0.0000E+00
      2.856  0.0000E+00  0.0000E+00  0.0000E+00
      2.988  0.0000E+00  0.0000E+00  0.0000E+00
      3.121  0.0000E+00  0.0000E+00  0.0000E+00
      3.253  0.1527E-11  0.2496E-11  0.0000E+00
      3.385  0.2900E-06  0.5541E-05  0.0000E+00
      3.517  0.1736E-04  0.1688E-03  0.0000E+00
      3.649  0.1565E-04  0.8448E-04  0.0000E+00
      3.781  0.1220E-03  0.3564E-03  0.0000E+00
      3.913  0.8541E-04  0.2027E-03  0.0000E+00
      4.045  0.2044E-03  0.3200E-03  0.0000E+00
      4.178  0.8983E-04  0.2448E-03  0.0000E+00
      4.310  0.1634E-04  0.1170E-03  0.0000E+00
      4.442  0.2682E-04  0.1172E-03  0.0000E+00
      4.574  0.8288E-05  0.2595E-03  0.0000E+00
      4.706  0.3661E-04  0.2648E-03  0.0000E+00
      4.838  0.1070E-03  0.4588E-03  0.0000E+00
      4.970  0.8369E-04  0.3942E-03  0.0000E+00
      5.103  0.4735E-04  0.1586E-03  0.0000E+00
      5.235  0.1593E-04  0.3779E-04  0.0000E+00
      5.367  0.0000E+00  0.0000E+00  0.0000E+00
      5.499  0.9907E-09  0.4691E-09  0.0000E+00
      5.631  0.3401E-08  0.2116E-08  0.0000E+00
      5.763  0.6964E-02  0.4188E-02  0.0000E+00
      5.895  0.1411E-01  0.1359E-01  0.0000E+00
      6.028  0.5704E-02  0.8999E-02  0.0000E+00
      6.160  0.3688E-02  0.4892E-02  0.0000E+00
      6.292  0.1323E-01  0.1509E-01  0.0000E+00
      6.424  0.3091E-01  0.1769E-01  0.0000E+00
      6.556  0.2585E-01  0.1763E-01  0.0000E+00
      6.688  0.1742E-01  0.2196E-01  0.0000E+00
      6.820  0.2879E-01  0.5379E-01  0.0000E+00
      6.953  0.7618E-01  0.2116E-01  0.0000E+00
      7.085  0.6150E-01  0.2155E-01  0.0000E+00
      7.217  0.6844E-01  0.3518E-01  0.0000E+00
      7.349  0.2731E-01  0.2307E-01  0.0000E+00
      7.481  0.2788E-01  0.1767E-01  0.0000E+00
      7.613  0.1654E-01  0.4108E-01  0.0000E+00
      7.745  0.1407E-01  0.5874E-01  0.0000E+00
      7.878  0.1455E-01  0.5279E-01  0.0000E+00
      8.010  0.1146E-01  0.5859E-01  0.0000E+00
      8.142  0.7219E-02  0.4106E-01  0.0000E+00
      8.274  0.1702E-01  0.6560E-01  0.0000E+00
      8.406  0.2602E-01  0.8412E-01  0.0000E+00
      8.538  0.1128E-01  0.3542E-01  0.0000E+00
      8.670  0.1166E-01  0.5475E-01  0.0000E+00
      8.802  0.1488E-01  0.7968E-01  0.0000E+00
      8.935  0.7706E-02  0.7377E-01  0.0000E+00
      9.067  0.1964E-01  0.8007E-01  0.0000E+00
      9.199  0.2286E-01  0.8879E-01  0.0000E+00
      9.331  0.2656E-01  0.7686E-01  0.0000E+00
      9.463  0.2825E-01  0.9533E-01  0.0000E+00
      9.595  0.2205E-01  0.6792E-01  0.0000E+00
      9.727  0.2286E-01  0.8299E-01  0.0000E+00
      9.860  0.3674E-01  0.1221E+00  0.0000E+00
      9.992  0.2499E-01  0.9670E-01  0.0000E+00
     10.124  0.2978E-01  0.1299E+00  0.0000E+00
     10.256  0.1910E-01  0.7744E-01  0.0000E+00
     10.388  0.2820E-01  0.1718E+00  0.0000E+00
     10.520  0.2267E-01  0.1579E+00  0.0000E+00
     10.652  0.2406E-01  0.1580E+00  0.0000E+00
     10.785  0.1466E-01  0.7952E-01  0.0000E+00
     10.917  0.3852E-01  0.2116E+00  0.0000E+00
     11.049  0.1921E-01  0.1607E+00  0.0000E+00
     11.181  0.1438E-01  0.1392E+00  0.0000E+00
     11.313  0.1127E-01  0.1113E+00  0.0000E+00
     11.445  0.9386E-02  0.1160E+00  0.0000E+00
     11.577  0.1576E-01  0.8439E-01  0.0000E+00
     11.710  0.1191E-01  0.7774E-01  0.0000E+00
     11.842  0.4821E-02  0.4213E-01  0.0000E+00
     11.974  0.9583E-02  0.5119E-01  0.0000E+00
     12.106  0.1487E-01  0.8943E-01  0.0000E+00
     12.238  0.1483E-01  0.7399E-01  0.0000E+00
     12.370  0.2321E-01  0.7013E-01  0.0000E+00
     12.502  0.1497E-01  0.4792E-01  0.0000E+00
     12.635  0.2106E-01  0.8978E-01  0.0000E+00
     12.767  0.2562E-01  0.8185E-01  0.0000E+00
     12.899  0.2250E-01  0.1177E+00  0.0000E+00
     13.031  0.1030E-01  0.6642E-01  0.0000E+00
     13.163  0.2613E-01  0.1348E+00  0.0000E+00
     13.295  0.1208E-01  0.8516E-01  0.0000E+00
     13.427  0.2595E-01  0.1096E+00  0.0000E+00
     13.559  0.2795E-01  0.6534E-01  0.0000E+00
     13.692  0.1681E-01  0.7724E-01  0.0000E+00
     13.824  0.3394E-01  0.6902E-01  0.0000E+00
     13.956  0.2884E-01  0.5359E-01  0.0000E+00
     14.088  0.2029E-01  0.4706E-01  0.0000E+00
     14.220  0.4039E-01  0.6636E-01  0.0000E+00
     14.352  0.1436E-01  0.5099E-01  0.0000E+00
     14.484  0.2367E-01  0.5400E-01  0.0000E+00
     14.617  0.1871E-01  0.3319E-01  0.0000E+00
     14.749  0.5728E-02  0.1409E-01  0.0000E+00
     14.881  0.2683E-02  0.9388E-02  0.0000E+00
     15.013  0.6107E-03  0.4953E-02  0.0000E+00
     15.145  0.1035E-02  0.1646E-02  0.0000E+00
     15.277  0.0000E+00  0.0000E+00  0.0000E+00
     15.409  0.0000E+00  0.0000E+00  0.0000E+00
     15.542  0.0000E+00  0.0000E+00  0.0000E+00
     15.674  0.0000E+00  0.0000E+00  0.0000E+00
     15.806  0.0000E+00  0.0000E+00  0.0000E+00
     15.938  0.0000E+00  0.0000E+00  0.0000E+00
     16.070  0.0000E+00  0.0000E+00  0.0000E+00
     16.202  0.0000E+00  0.0000E+00  0.0000E+00
     16.334  0.0000E+00  0.0000E+00  0.0000E+00
     16.467  0.0000E+00  0.0000E+00  0.0000E+00
     16.599  0.0000E+00  0.0000E+00  0.0000E+00
     16.731  0.0000E+00  0.0000E+00  0.0000E+00
     16.863  0.0000E+00  0.0000E+00  0.0000E+00
     16.995  0.0000E+00  0.0000E+00  0.0000E+00
     16.99510809    -22.64656975  301      1.41097349      1.00000000
    -22.647  0.0000E+00  0.0000E+00  0.0000E+00
    -22.514  0.0000E+00  0.0000E+00  0.0000E+00
    -22.382  0.0000E+00  0.0000E+00  0.0000E+00
    -22.250  0.0000E+00  0.0000E+00  0.0000E+00
    -22.118  0.0000E+00  0.0000E+00  0.0000E+00
    -21.986  0.0000E+00  0.0000E+00  0.0000E+00
    -21.854  0.0000E+00  0.0000E+00  0.0000E+00
    -21.722  0.0000E+00  0.0000E+00  0.0000E+00
    -21.589  0.0000E+00  0.0000E+00  0.0000E+00
    -21.457  0.0000E+00  0.0000E+00  0.0000E+00
    -21.325  0.0000E+00  0.0000E+00  0.0000E+00
    -21.193  0.0000E+00  0.0000E+00  0.0000E+00
    -21.061  0.0000E+00  0.0000E+00  0.0000E+00
    -20.929  0.0000E+00  0.0000E+00  0.0000E+00
    -20.797  0.8496E+01  0.2619E-02  0.0000E+00
    -20.664  0.0000E+00  0.0000E+00  0.0000E+00
    -20.532  0.0000E+00  0.0000E+00  0.0000E+00
    -20.400  0.0000E+00  0.0000E+00  0.0000E+00
    -20.268  0.0000E+00  0.0000E+00  0.0000E+00
    -20.136  0.0000E+00  0.0000E+00  0.0000E+00
    -20.004  0.0000E+00  0.0000E+00  0.0000E+00
    -19.872  0.0000E+00  0.0000E+00  0.0000E+00
    -19.740  0.0000E+00  0.0000E+00  0.0000E+00
    -19.607  0.0000E+00  0.0000E+00  0.0000E+00
    -19.475  0.0000E+00  0.0000E+00  0.0000E+00
    -19.343  0.0000E+00  0.0000E+00  0.0000E+00
    -19.211  0.0000E+00  0.0000E+00  0.0000E+00
    -19.079  0.0000E+00  0.0000E+00  0.0000E+00
    -18.947  0.0000E+00  0.0000E+00  0.0000E+00
    -18.815  0.0000E+00  0.0000E+00  0.0000E+00
    -18.682  0.0000E+00  0.0000E+00  0.0000E+00
    -18.550  0.0000E+00  0.0000E+00  0.0000E+00
    -18.418  0.0000E+00  0.0000E+00  0.0000E+00
    -18.286  0.0000E+00  0.0000E+00  0.0000E+00
    -18.154  0.0000E+00  0.0000E+00  0.0000E+00
    -18.022  0.0000E+00  0.0000E+00  0.0000E+00
    -17.890  0.0000E+00  0.0000E+00  0.0000E+00
    -17.757  0.0000E+00  0.0000E+00  0.0000E+00
    -17.625  0.0000E+00  0.0000E+00  0.0000E+00
    -17.493  0.0000E+00  0.0000E+00  0.0000E+00
    -17.361  0.0000E+00  0.0000E+00  0.0000E+00
    -17.229  0.4866E-24  0.1378E-22  0.0000E+00
    -17.097  0.2358E-04  0.1764E-04  0.0000E+00
    -16.965  0.0000E+00  0.0000E+00  0.0000E+00
    -16.832  0.0000E+00  0.0000E+00  0.0000E+00
    -16.700  0.0000E+00  0.0000E+00  0.0000E+00
    -16.568  0.0000E+00  0.0000E+00  0.0000E+00
    -16.436  0.0000E+00  0.0000E+00  0.0000E+00
    -16.304  0.0000E+00  0.0000E+00  0.0000E+00
    -16.172  0.0000E+00  0.0000E+00  0.0000E+00
    -16.040  0.0000E+00  0.0000E+00  0.0000E+00
    -15.907  0.0000E+00  0.0000E+00  0.0000E+00
    -15.775  0.0000E+00  0.0000E+00  0.0000E+00
    -15.643  0.0000E+00  0.0000E+00  0.0000E+00
    -15.511  0.0000E+00  0.0000E+00  0.0000E+00
    -15.379  0.0000E+00  0.0000E+00  0.0000E+00
    -15.247  0.0000E+00  0.0000E+00  0.0000E+00
    -15.115  0.0000E+00  0.0000E+00  0.0000E+00
    -14.983  0.0000E+00  0.0000E+00  0.0000E+00
    -14.850  0.0000E+00  0.0000E+00  0.0000E+00
    -14.718  0.0000E+00  0.0000E+00  0.0000E+00
    -14.586  0.0000E+00  0.0000E+00  0.0000E+00
    -14.454  0.0000E+00  0.0000E+00  0.0000E+00
    -14.322  0.0000E+00  0.0000E+00  0.0000E+00
    -14.190  0.0000E+00  0.0000E+00  0.0000E+00
    -14.058  0.0000E+00  0.0000E+00  0.0000E+00
    -13.925  0.0000E+00  0.0000E+00  0.0000E+00
    -13.793  0.0000E+00  0.0000E+00  0.0000E+00
    -13.661  0.0000E+00  0.0000E+00  0.0000E+00
    -13.529  0.0000E+00  0.0000E+00  0.0000E+00
    -13.397  0.3453E-12  0.1381E-11  0.0000E+00
    -13.265  0.4825E+00  0.1829E+01  0.0000E+00
    -13.133  0.0000E+00  0.0000E+00  0.0000E+00
    -13.000  0.0000E+00  0.0000E+00  0.0000E+00
    -12.868  0.0000E+00  0.0000E+00  0.0000E+00
    -12.736  0.0000E+00  0.0000E+00  0.0000E+00
    -12.604  0.0000E+00  0.0000E+00  0.0000E+00
    -12.472  0.0000E+00  0.0000E+00  0.0000E+00
    -12.340  0.2246E-03  0.7571E-05  0.0000E+00
    -12.208  0.4592E-02  0.3264E-02  0.0000E+00
    -12.075  0.8732E-02  0.1580E-01  0.0000E+00
    -11.943  0.1757E-02  0.1731E-01  0.0000E+00
    -11.811  0.5288E-02  0.1522E-01  0.0000E+00
    -11.679  0.2478E-02  0.1171E-01  0.0000E+00
    -11.547  0.1250E-03  0.4518E-02  0.0000E+00
    -11.415  0.8203E-03  0.4455E-02  0.0000E+00
    -11.283  0.1112E-02  0.1263E-02  0.0000E+00
    -11.150  0.0000E+00  0.0000E+00  0.0000E+00
    -11.018  0.0000E+00  0.0000E+00  0.0000E+00
    -10.886  0.0000E+00  0.0000E+00  0.0000E+00