 vasp.5.3.5 31Mar14 (build Apr 15 2015 10:45:18) complex                        
  
 executed on             LinuxIFC date 2016.01.06  14:24:55
 running on  128 total cores
 distrk:  each k-point on  128 cores,    1 groups
 distr:  one band on NCORES_PER_BAND=   1 cores,  128 groups


--------------------------------------------------------------------------------------------------------


 INCAR:
 POTCAR:    PAW_PBE C 08Apr2002                   
 POTCAR:    PAW_PBE N 08Apr2002                   
 POTCAR:    PAW_PBE H 15Jun2001                   
 POTCAR:    PAW_PBE Pb_d 06Sep2000                
 POTCAR:    PAW_PBE I 08Apr2002                   

 ----------------------------------------------------------------------------- 
|                                                                             |
|           W    W    AA    RRRRR   N    N  II  N    N   GGGG   !!!           |
|           W    W   A  A   R    R  NN   N  II  NN   N  G    G  !!!           |
|           W    W  A    A  R    R  N N  N  II  N N  N  G       !!!           |
|           W WW W  AAAAAA  RRRRR   N  N N  II  N  N N  G  GGG   !            |
|           WW  WW  A    A  R   R   N   NN  II  N   NN  G    G                |
|           W    W  A    A  R    R  N    N  II  N    N   GGGG   !!!           |
|                                                                             |
|      For optimal performance we recommend to set                            |
|        NCORE= 4 - approx SQRT( number of cores)                             |
|      NCORE specifies how many cores store one orbital (NPAR=cpu/NCORE).     |
|      This setting can  greatly improve the performance of VASP for DFT.     |
|      The default, NPAR=number of cores might be grossly inefficient         |
|      on modern multi-core architectures or massively parallel machines.     |
|      Do your own testing !!!!                                               |
|      Unfortunately you need to use the default for GW and RPA calculations. |
|      (for HF NCORE is supported but not extensively tested yet)             |
|                                                                             |
 ----------------------------------------------------------------------------- 


 ----------------------------------------------------------------------------- 
|                                                                             |
|           W    W    AA    RRRRR   N    N  II  N    N   GGGG   !!!           |
|           W    W   A  A   R    R  NN   N  II  NN   N  G    G  !!!           |
|           W    W  A    A  R    R  N N  N  II  N N  N  G       !!!           |
|           W WW W  AAAAAA  RRRRR   N  N N  II  N  N N  G  GGG   !            |
|           WW  WW  A    A  R   R   N   NN  II  N   NN  G    G                |
|           W    W  A    A  R    R  N    N  II  N    N   GGGG   !!!           |
|                                                                             |
|      You have selected ISYM=2 for HF type calculation. This will symmetrize |
|      the charge density but not the exchange potential.                     |
|      I suggest to use ISYM=3 instead. This uses symmetry to obtain          |
|      the orbitals at all k-points in the Brillouine zone, but does not      |
|      apply symmetry to the Hartree potential directly.                      |
|      The resultant charge might have lower symmetry than the crystal,       |
|      but at least, Hartree and exchange are fully compatible.               |
|                                                                             |
 ----------------------------------------------------------------------------- 

 POTCAR:    PAW_PBE C 08Apr2002                   
   VRHFIN =C: s2p2                                                              
   LEXCH  = PE                                                                  
   EATOM  =   147.1560 eV,   10.8157 Ry                                         
                                                                                
   TITEL  = PAW_PBE C 08Apr2002                                                 
   LULTRA =        F    use ultrasoft PP ?                                      
   IUNSCR =        1    unscreen: 0-lin 1-nonlin 2-no                           
   RPACOR =    1.200    partial core radius                                     
   POMASS =   12.011; ZVAL   =    4.000    mass and valenz                      
   RCORE  =    1.500    outmost cutoff radius                                   
   RWIGS  =    1.630; RWIGS  =    0.863    wigner-seitz radius (au A)           
   ENMAX  =  400.000; ENMIN  =  300.000 eV                                      
   ICORE  =        2    local potential                                         
   LCOR   =        T    correct aug charges                                     
   LPAW   =        T    paw PP                                                  
   EAUG   =  644.873                                                            
   DEXC   =    0.000                                                            
   RMAX   =    1.529    core radius for proj-oper                               
   RAUG   =    1.300    factor for augmentation sphere                          
   RDEP   =    1.501    radius for radial grids                                 
   RDEPT  =    1.300    core radius for aug-charge                              
                                                                                
   Atomic configuration                                                         
    4 entries                                                                   
     n  l   j            E        occ.                                          
     1  0  0.50      -273.3789   2.0000                                         
     2  0  0.50       -13.7508   2.0000                                         
     2  1  0.50        -5.2854   2.0000                                         
     3  2  1.50        -5.4423   0.0000                                         
   Description                                                                  
     l       E           TYP  RCUT    TYP  RCUT                                 
     0    -13.7508458     23  1.200                                             
     0     -8.2022199     23  1.200                                             
     1     -5.2854383     23  1.500                                             
     1     34.0145650     23  1.500                                             
     2     -5.4423304      7  1.500                                             
  local pseudopotential read in
  partial core-charges read in
  partial kinetic energy density read in
  atomic valenz-charges read in
  non local Contribution for L=           0  read in
    real space projection operators read in
  non local Contribution for L=           0  read in
    real space projection operators read in
  non local Contribution for L=           1  read in
    real space projection operators read in
  non local Contribution for L=           1  read in
    real space projection operators read in
    PAW grid and wavefunctions read in
 
   number of l-projection  operators is LMAX  =           4
   number of lm-projection operators is LMMAX =           8
 
 POTCAR:    PAW_PBE N 08Apr2002                   
   VRHFIN =N: s2p3                                                              
   LEXCH  = PE                                                                  
   EATOM  =   264.5486 eV,   19.4438 Ry                                         
                                                                                
   TITEL  = PAW_PBE N 08Apr2002                                                 
   LULTRA =        F    use ultrasoft PP ?                                      
   IUNSCR =        1    unscreen: 0-lin 1-nonlin 2-no                           
   RPACOR =    1.200    partial core radius                                     
   POMASS =   14.001; ZVAL   =    5.000    mass and valenz                      
   RCORE  =    1.500    outmost cutoff radius                                   
   RWIGS  =    1.400; RWIGS  =    0.741    wigner-seitz radius (au A)           
   ENMAX  =  400.000; ENMIN  =  300.000 eV                                      
   ICORE  =        2    local potential                                         
   LCOR   =        T    correct aug charges                                     
   LPAW   =        T    paw PP                                                  
   EAUG   =  627.112                                                            
   DEXC   =    0.000                                                            
   RMAX   =    1.529    core radius for proj-oper                               
   RAUG   =    1.300    factor for augmentation sphere                          
   RDEP   =    1.514    radius for radial grids                                 
   RDEPT  =    1.338    core radius for aug-charge                              
                                                                                
   Atomic configuration                                                         
    4 entries                                                                   
     n  l   j            E        occ.                                          
     1  0  0.50      -384.7179   2.0000                                         
     2  0  0.50       -18.5828   2.0000                                         
     2  1  0.50        -7.0898   3.0000                                         
     3  2  1.50        -6.8029   0.0000                                         
   Description                                                                  
     l       E           TYP  RCUT    TYP  RCUT                                 
     0    -18.5828119     23  1.200                                             
     0    -13.5018863     23  1.200                                             
     1     -7.0897853     23  1.500                                             
     1      9.5240782     23  1.500                                             
     2     -6.8029130      7  1.500                                             
  local pseudopotential read in
  partial core-charges read in
  partial kinetic energy density read in
  atomic valenz-charges read in
  non local Contribution for L=           0  read in
    real space projection operators read in
  non local Contribution for L=           0  read in
    real space projection operators read in
  non local Contribution for L=           1  read in
    real space projection operators read in
  non local Contribution for L=           1  read in
    real space projection operators read in
    PAW grid and wavefunctions read in
 
   number of l-projection  operators is LMAX  =           4
   number of lm-projection operators is LMMAX =           8
 
 POTCAR:    PAW_PBE H 15Jun2001                   
   VRHFIN =H: ultrasoft test                                                    
   LEXCH  = PE                                                                  
   EATOM  =    12.4884 eV,    0.9179 Ry                                         
                                                                                
   TITEL  = PAW_PBE H 15Jun2001                                                 
   LULTRA =        F    use ultrasoft PP ?                                      
   IUNSCR =        0    unscreen: 0-lin 1-nonlin 2-no                           
   RPACOR =    0.000    partial core radius                                     
   POMASS =    1.000; ZVAL   =    1.000    mass and valenz                      
   RCORE  =    1.100    outmost cutoff radius                                   
   RWIGS  =    0.700; RWIGS  =    0.370    wigner-seitz radius (au A)           
   ENMAX  =  250.000; ENMIN  =  200.000 eV                                      
   RCLOC  =    0.701    cutoff for local pot                                    
   LCOR   =        T    correct aug charges                                     
   LPAW   =        T    paw PP                                                  
   EAUG   =  400.000                                                            
   RMAX   =    1.123    core radius for proj-oper                               
   RAUG   =    1.200    factor for augmentation sphere                          
   RDEP   =    1.112    radius for radial grids                                 
   RDEPT  =    0.926    core radius for aug-charge                              
                                                                                
   Atomic configuration                                                         
    2 entries                                                                   
     n  l   j            E        occ.                                          
     1  0  0.50        -6.4927   1.0000                                         
     2  1  0.50        -3.4015   0.0000                                         
   Description                                                                  
     l       E           TYP  RCUT    TYP  RCUT                                 
     0     -6.4927494     23  1.100                                             
     0      6.8029130     23  1.100                                             
     1     -4.0817478     23  1.100                                             
  local pseudopotential read in
  atomic valenz-charges read in
  non local Contribution for L=           0  read in
    real space projection operators read in
  non local Contribution for L=           0  read in
    real space projection operators read in
  non local Contribution for L=           1  read in
    real space projection operators read in
    PAW grid and wavefunctions read in
 
   number of l-projection  operators is LMAX  =           3
   number of lm-projection operators is LMMAX =           5
 
 POTCAR:    PAW_PBE Pb_d 06Sep2000                
   VRHFIN =Pb:                                                                  
   LEXCH  = PE                                                                  
   EATOM  =  1661.6185 eV,  122.1255 Ry                                         
                                                                                
   TITEL  = PAW_PBE Pb_d 06Sep2000                                              
   LULTRA =        F    use ultrasoft PP ?                                      
   IUNSCR =        1    unscreen: 0-lin 1-nonlin 2-no                           
   RPACOR =    2.200    partial core radius                                     
   POMASS =  207.200; ZVAL   =   14.000    mass and valenz                      
   RCORE  =    2.500    outmost cutoff radius                                   
   RWIGS  =    3.260; RWIGS  =    1.725    wigner-seitz radius (au A)           
   ENMAX  =  237.835; ENMIN  =  178.376 eV                                      
   ICORE  =        3    local potential                                         
   LCOR   =        T    correct aug charges                                     
   LPAW   =        T    paw PP                                                  
   EAUG   =  391.914                                                            
   DEXC   =    0.000                                                            
   RMAX   =    2.565    core radius for proj-oper                               
   RAUG   =    1.300    factor for augmentation sphere                          
   RDEP   =    2.643    radius for radial grids                                 
   RDEPT  =    2.092    core radius for aug-charge                              
                                                                                
   Atomic configuration                                                         
   16 entries                                                                   
     n  l   j            E        occ.                                          
     1  0  0.50    -88091.8466   2.0000                                         
     2  0  0.50    -15753.4197   2.0000                                         
     2  1  1.50    -13508.1797   6.0000                                         
     3  0  0.50     -3781.7194   2.0000                                         
     3  1  1.50     -3138.2529   6.0000                                         
     3  2  2.50     -2483.2977  10.0000                                         
     4  0  0.50      -856.2895   2.0000                                         
     4  1  1.50      -645.4942   6.0000                                         
     4  2  2.50      -401.8768  10.0000                                         
     4  3  3.50      -132.9059  14.0000                                         
     5  0  0.50      -144.0950   2.0000                                         
     5  1  1.50       -85.7879   6.0000                                         
     5  2  2.50       -21.1769  10.0000                                         
     6  0  0.50       -12.0372   2.0000                                         
     6  1  1.50        -3.4971   2.0000                                         
     5  3  2.50        -2.7212   0.0000                                         
   Description                                                                  
     l       E           TYP  RCUT    TYP  RCUT                                 
     2    -21.1768523     23  2.500                                             
     2      1.3605826     23  2.500                                             
     0    -12.0371562     23  2.500                                             
     0     13.6058260     23  2.500                                             
     1     -3.4971339     23  2.500                                             
     1     13.6058260     23  2.500                                             
     3     -1.3605826      7  2.500                                             
  local pseudopotential read in
  partial core-charges read in
  partial kinetic energy density read in
  atomic valenz-charges read in
  non local Contribution for L=           2  read in
    real space projection operators read in
  non local Contribution for L=           2  read in
    real space projection operators read in
  non local Contribution for L=           0  read in
    real space projection operators read in
  non local Contribution for L=           0  read in
    real space projection operators read in
  non local Contribution for L=           1  read in
    real space projection operators read in
  non local Contribution for L=           1  read in
    real space projection operators read in
    PAW grid and wavefunctions read in
 
   number of l-projection  operators is LMAX  =           6
   number of lm-projection operators is LMMAX =          18
 
 POTCAR:    PAW_PBE I 08Apr2002                   
   VRHFIN =I : s2p5                                                             
   LEXCH  = PE                                                                  
   EATOM  =   315.8678 eV,   23.2156 Ry                                         
                                                                                
   TITEL  = PAW_PBE I 08Apr2002                                                 
   LULTRA =        F    use ultrasoft PP ?                                      
   IUNSCR =        1    unscreen: 0-lin 1-nonlin 2-no                           
   RPACOR =    2.200    partial core radius                                     
   POMASS =  126.904; ZVAL   =    7.000    mass and valenz                      
   RCORE  =    2.300    outmost cutoff radius                                   
   RWIGS  =    2.810; RWIGS  =    1.487    wigner-seitz radius (au A)           
   ENMAX  =  175.647; ENMIN  =  131.735 eV                                      
   ICORE  =        3    local potential                                         
   LCOR   =        T    correct aug charges                                     
   LPAW   =        T    paw PP                                                  
   EAUG   =  370.139                                                            
   DEXC   =    0.000                                                            
   RMAX   =    2.359    core radius for proj-oper                               
   RAUG   =    1.300    factor for augmentation sphere                          
   RDEP   =    2.392    radius for radial grids                                 
   RDEPT  =    2.170    core radius for aug-charge                              
                                                                                
   Atomic configuration                                                         
   13 entries                                                                   
     n  l   j            E        occ.                                          
     1  0  0.50    -32976.3739   2.0000                                         
     2  0  0.50     -5094.5933   2.0000                                         
     2  1  1.50     -4572.0131   6.0000                                         
     3  0  0.50     -1028.2813   2.0000                                         
     3  1  1.50      -859.0250   6.0000                                         
     3  2  2.50      -605.7620  10.0000                                         
     4  0  0.50      -180.5540   2.0000                                         
     4  1  1.50      -127.5306   6.0000                                         
     4  2  2.50       -50.2720  10.0000                                         
     5  0  0.50       -17.4058   2.0000                                         
     5  1  0.50        -7.0851   5.0000                                         
     5  2  1.50        -7.0750   0.0000                                         
     4  3  2.50        -7.0750   0.0000                                         
   Description                                                                  
     l       E           TYP  RCUT    TYP  RCUT                                 
     0    -17.4058016     23  2.300                                             
     0    -18.7663842     23  2.300                                             
     1     -7.0850686     23  2.300                                             
     1     -4.2150896     23  2.300                                             
     2     -7.0750295     23  2.300                                             
     3     -1.3605826     23  2.300                                             
  local pseudopotential read in
  partial core-charges read in
  partial kinetic energy density read in
  atomic valenz-charges read in
  non local Contribution for L=           0  read in
    real space projection operators read in
  non local Contribution for L=           0  read in
    real space projection operators read in
  non local Contribution for L=           1  read in
    real space projection operators read in
  non local Contribution for L=           1  read in
    real space projection operators read in
  non local Contribution for L=           2  read in
    real space projection operators read in
    PAW grid and wavefunctions read in
 
   number of l-projection  operators is LMAX  =           5
   number of lm-projection operators is LMMAX =          13
 
  PAW_PBE C 08Apr2002                   :
 energy of atom  1       EATOM= -147.1560
 kinetic energy error for atom=    0.0076 (will be added to EATOM!!)
  PAW_PBE N 08Apr2002                   :
 energy of atom  2       EATOM= -264.5486
 kinetic energy error for atom=    0.0138 (will be added to EATOM!!)
  PAW_PBE H 15Jun2001                   :
 energy of atom  3       EATOM=  -12.4884
 kinetic energy error for atom=    0.0020 (will be added to EATOM!!)
  PAW_PBE Pb_d 06Sep2000                :
 energy of atom  4       EATOM=-1661.6185
 kinetic energy error for atom=    0.0047 (will be added to EATOM!!)
  PAW_PBE I 08Apr2002                   :
 energy of atom  5       EATOM= -315.8678
 kinetic energy error for atom=    0.0009 (will be added to EATOM!!)
 
 
 POSCAR: MA-Pb-I (Github)                        
  positions in direct lattice
  No initial velocities read in
 exchange correlation table for  LEXCH =        8
   RHO(1)=    0.500       N(1)  =     2000
   RHO(2)=  100.500       N(2)  =     4000
 


--------------------------------------------------------------------------------------------------------


 ion  position               nearest neighbor table
   1  0.903  1.000  0.996-   3 1.10   5 1.10   4 1.10   2 1.48
   2  0.137  1.000  0.025-   6 1.04   7 1.04   8 1.05   1 1.48
   3  0.865  1.000  0.826-   1 1.10
   4  0.838  0.144  0.072-   1 1.10
   5  0.838  0.857  0.072-   1 1.10
   6  0.208  0.134  0.958-   2 1.04
   7  0.207  0.865  0.958-   2 1.04
   8  0.182  0.000  0.185-   2 1.05
   9  0.476  0.500  0.476-  12 3.07  10 3.15  11 3.15  11 3.15  10 3.18  12 3.23
  10  0.427  0.500  0.973-   9 3.15   9 3.18
  11  0.436  0.000  0.507-   9 3.15   9 3.15
  12  0.963  0.500  0.448-   9 3.07   9 3.23
 
  LATTYP: Found a simple monoclinic cell.
 ALAT       =     6.2901201248
 B/A-ratio  =     0.9974197462
 C/A-ratio  =     1.4105278383
 COS(beta)  =    -0.7044835581
  
  Lattice vectors:
  
 A1 = (  -6.2901201248,   0.0000000000,   0.0000000000)
 A2 = (  -0.0000776940,  -6.2738900180,   0.0000000000)
 A3 = (   6.2504525538,  -0.0001537931,   6.2969150416)


Analysis of symmetry for initial positions (statically):
=====================================================================
 Subroutine PRICEL returns:
 Original cell was already a primitive cell.
 

 Routine SETGRP: Setting up the symmetry group for a 
 simple monoclinic supercell.


 Subroutine GETGRP returns: Found  1 space group operations
 (whereof  1 operations were pure point group operations)
 out of a pool of  4 trial point group operations.


The static configuration has the point symmetry C_1 .


Analysis of symmetry for dynamics (positions and initial velocities):
=====================================================================
 Subroutine PRICEL returns:
 Original cell was already a primitive cell.
 

 Routine SETGRP: Setting up the symmetry group for a 
 simple monoclinic supercell.


 Subroutine GETGRP returns: Found  1 space group operations
 (whereof  1 operations were pure point group operations)
 out of a pool of  4 trial point group operations.


The dynamic configuration has the point symmetry C_1 .
 
 
 KPOINTS: Automatic mesh                          

Automatic generation of k-mesh.
Space group operators:
 irot       det(A)        alpha          n_x          n_y          n_z        tau_x        tau_y        tau_z
    1     1.000000     0.000000     1.000000     0.000000     0.000000     0.000000     0.000000     0.000000
 
 Subroutine IBZKPT returns following result:
 ===========================================
 
 Found    112 irreducible k-points:
 
 Following reciprocal coordinates:
            Coordinates               Weight
  0.000000  0.000000  0.000000      1.000000
  0.166667  0.000000  0.000000      2.000000
  0.333333  0.000000  0.000000      2.000000
  0.500000  0.000000  0.000000      1.000000
  0.000000  0.166667  0.000000      2.000000
  0.166667  0.166667  0.000000      2.000000
  0.333333  0.166667  0.000000      2.000000
  0.500000  0.166667  0.000000      2.000000
 -0.333333  0.166667 -0.000000      2.000000
 -0.166667  0.166667 -0.000000      2.000000
  0.000000  0.333333  0.000000      2.000000
  0.166667  0.333333  0.000000      2.000000
  0.333333  0.333333  0.000000      2.000000
  0.500000  0.333333  0.000000      2.000000
 -0.333333  0.333333  0.000000      2.000000
 -0.166667  0.333333 -0.000000      2.000000
  0.000000  0.500000  0.000000      1.000000
  0.166667  0.500000  0.000000      2.000000
  0.333333  0.500000  0.000000      2.000000
  0.500000  0.500000  0.000000      1.000000
  0.000000  0.000000  0.166667      2.000000
  0.166667  0.000000  0.166667      2.000000
  0.333333  0.000000  0.166667      2.000000
  0.500000  0.000000  0.166667      2.000000
 -0.333333 -0.000000  0.166667      2.000000
 -0.166667 -0.000000  0.166667      2.000000
  0.000000  0.166667  0.166667      2.000000
  0.166667  0.166667  0.166667      2.000000
  0.333333  0.166667  0.166667      2.000000
  0.500000  0.166667  0.166667      2.000000
 -0.333333  0.166667  0.166667      2.000000
 -0.166667  0.166667  0.166667      2.000000
  0.000000  0.333333  0.166667      2.000000
  0.166667  0.333333  0.166667      2.000000
  0.333333  0.333333  0.166667      2.000000
  0.500000  0.333333  0.166667      2.000000
 -0.333333  0.333333  0.166667      2.000000
 -0.166667  0.333333  0.166667      2.000000
  0.000000  0.500000  0.166667      2.000000
  0.166667  0.500000  0.166667      2.000000
  0.333333  0.500000  0.166667      2.000000
  0.500000  0.500000  0.166667      2.000000
 -0.333333  0.500000  0.166667      2.000000
 -0.166667  0.500000  0.166667      2.000000
  0.000000 -0.333333  0.166667      2.000000
  0.166667 -0.333333  0.166667      2.000000
  0.333333 -0.333333  0.166667      2.000000
  0.500000 -0.333333  0.166667      2.000000
 -0.333333 -0.333333  0.166667      2.000000
 -0.166667 -0.333333  0.166667      2.000000
  0.000000 -0.166667  0.166667      2.000000
  0.166667 -0.166667  0.166667      2.000000
  0.333333 -0.166667  0.166667      2.000000
  0.500000 -0.166667  0.166667      2.000000
 -0.333333 -0.166667  0.166667      2.000000
 -0.166667 -0.166667  0.166667      2.000000
  0.000000  0.000000  0.333333      2.000000
  0.166667  0.000000  0.333333      2.000000
  0.333333  0.000000  0.333333      2.000000
  0.500000  0.000000  0.333333      2.000000
 -0.333333 -0.000000  0.333333      2.000000
 -0.166667 -0.000000  0.333333      2.000000
  0.000000  0.166667  0.333333      2.000000
  0.166667  0.166667  0.333333      2.000000
  0.333333  0.166667  0.333333      2.000000
  0.500000  0.166667  0.333333      2.000000
 -0.333333  0.166667  0.333333      2.000000
 -0.166667  0.166667  0.333333      2.000000
  0.000000  0.333333  0.333333      2.000000
  0.166667  0.333333  0.333333      2.000000
  0.333333  0.333333  0.333333      2.000000
  0.500000  0.333333  0.333333      2.000000
 -0.333333  0.333333  0.333333      2.000000
 -0.166667  0.333333  0.333333      2.000000
  0.000000  0.500000  0.333333      2.000000
  0.166667  0.500000  0.333333      2.000000
  0.333333  0.500000  0.333333      2.000000
  0.500000  0.500000  0.333333      2.000000
 -0.333333  0.500000  0.333333      2.000000
 -0.166667  0.500000  0.333333      2.000000
  0.000000 -0.333333  0.333333      2.000000
  0.166667 -0.333333  0.333333      2.000000
  0.333333 -0.333333  0.333333      2.000000
  0.500000 -0.333333  0.333333      2.000000
 -0.333333 -0.333333  0.333333      2.000000
 -0.166667 -0.333333  0.333333      2.000000
  0.000000 -0.166667  0.333333      2.000000
  0.166667 -0.166667  0.333333      2.000000
  0.333333 -0.166667  0.333333      2.000000
  0.500000 -0.166667  0.333333      2.000000
 -0.333333 -0.166667  0.333333      2.000000
 -0.166667 -0.166667  0.333333      2.000000
  0.000000  0.000000  0.500000      1.000000
  0.166667  0.000000  0.500000      2.000000
  0.333333  0.000000  0.500000      2.000000
  0.500000  0.000000  0.500000      1.000000
  0.000000  0.166667  0.500000      2.000000
  0.166667  0.166667  0.500000      2.000000
  0.333333  0.166667  0.500000      2.000000
  0.500000  0.166667  0.500000      2.000000
 -0.333333  0.166667  0.500000      2.000000
 -0.166667  0.166667  0.500000      2.000000
  0.000000  0.333333  0.500000      2.000000
  0.166667  0.333333  0.500000      2.000000
  0.333333  0.333333  0.500000      2.000000
  0.500000  0.333333  0.500000      2.000000
 -0.333333  0.333333  0.500000      2.000000
 -0.166667  0.333333  0.500000      2.000000
  0.000000  0.500000  0.500000      1.000000
  0.166667  0.500000  0.500000      2.000000
  0.333333  0.500000  0.500000      2.000000
  0.500000  0.500000  0.500000      1.000000
 
 Following cartesian coordinates:
            Coordinates               Weight
  0.000000  0.000000  0.000000      1.000000
  0.026497 -0.000000  0.000167      2.000000
  0.052993 -0.000001  0.000334      2.000000
  0.079490 -0.000001  0.000501      1.000000
  0.000000  0.026565  0.000001      2.000000
  0.026497  0.026565  0.000168      2.000000
  0.052993  0.026564  0.000334      2.000000
  0.079490  0.026564  0.000501      2.000000
 -0.052993  0.026566 -0.000333      2.000000
 -0.026497  0.026565 -0.000166      2.000000
  0.000000  0.053130  0.000001      2.000000
  0.026497  0.053130  0.000168      2.000000
  0.052993  0.053130  0.000335      2.000000
  0.079490  0.053129  0.000502      2.000000
 -0.052993  0.053131 -0.000333      2.000000
 -0.026497  0.053131 -0.000166      2.000000
  0.000000  0.079695  0.000002      1.000000
  0.026497  0.079695  0.000169      2.000000
  0.052993  0.079695  0.000336      2.000000
  0.079490  0.079694  0.000503      1.000000
  0.000000  0.000000  0.026468      2.000000
  0.026497 -0.000000  0.026635      2.000000
  0.052993 -0.000001  0.026802      2.000000
  0.079490 -0.000001  0.026969      2.000000
 -0.052993  0.000001  0.026134      2.000000
 -0.026497  0.000000  0.026301      2.000000
  0.000000  0.026565  0.026469      2.000000
  0.026497  0.026565  0.026636      2.000000
  0.052993  0.026564  0.026802      2.000000
  0.079490  0.026564  0.026969      2.000000
 -0.052993  0.026566  0.026135      2.000000
 -0.026497  0.026565  0.026302      2.000000
  0.000000  0.053130  0.026469      2.000000
  0.026497  0.053130  0.026636      2.000000
  0.052993  0.053130  0.026803      2.000000
  0.079490  0.053129  0.026970      2.000000
 -0.052993  0.053131  0.026135      2.000000
 -0.026497  0.053131  0.026302      2.000000
  0.000000  0.079695  0.026470      2.000000
  0.026497  0.079695  0.026637      2.000000
  0.052993  0.079695  0.026804      2.000000
  0.079490  0.079694  0.026971      2.000000
 -0.052993  0.079696  0.026136      2.000000
 -0.026497  0.079696  0.026303      2.000000
  0.000000 -0.053130  0.026467      2.000000
  0.026497 -0.053131  0.026634      2.000000
  0.052993 -0.053131  0.026801      2.000000
  0.079490 -0.053131  0.026967      2.000000
 -0.052993 -0.053130  0.026133      2.000000
 -0.026497 -0.053130  0.026300      2.000000
  0.000000 -0.026565  0.026467      2.000000
  0.026497 -0.026565  0.026634      2.000000
  0.052993 -0.026566  0.026801      2.000000
  0.079490 -0.026566  0.026968      2.000000
 -0.052993 -0.026564  0.026134      2.000000
 -0.026497 -0.026565  0.026300      2.000000
  0.000000  0.000000  0.052936      2.000000
  0.026497 -0.000000  0.053103      2.000000
  0.052993 -0.000001  0.053270      2.000000
  0.079490 -0.000001  0.053437      2.000000
 -0.052993  0.000001  0.052602      2.000000
 -0.026497  0.000000  0.052769      2.000000
  0.000000  0.026565  0.052937      2.000000
  0.026497  0.026565  0.053104      2.000000
  0.052993  0.026564  0.053270      2.000000
  0.079490  0.026564  0.053437      2.000000
 -0.052993  0.026566  0.052603      2.000000
 -0.026497  0.026565  0.052770      2.000000
  0.000000  0.053130  0.052937      2.000000
  0.026497  0.053130  0.053104      2.000000
  0.052993  0.053130  0.053271      2.000000
  0.079490  0.053129  0.053438      2.000000
 -0.052993  0.053131  0.052603      2.000000
 -0.026497  0.053131  0.052770      2.000000
  0.000000  0.079695  0.052938      2.000000
  0.026497  0.079695  0.053105      2.000000
  0.052993  0.079695  0.053272      2.000000
  0.079490  0.079694  0.053439      2.000000
 -0.052993  0.079696  0.052604      2.000000
 -0.026497  0.079696  0.052771      2.000000
  0.000000 -0.053130  0.052935      2.000000
  0.026497 -0.053131  0.053102      2.000000
  0.052993 -0.053131  0.053269      2.000000
  0.079490 -0.053131  0.053435      2.000000
 -0.052993 -0.053130  0.052601      2.000000
 -0.026497 -0.053130  0.052768      2.000000
  0.000000 -0.026565  0.052935      2.000000
  0.026497 -0.026565  0.053102      2.000000
  0.052993 -0.026566  0.053269      2.000000
  0.079490 -0.026566  0.053436      2.000000
 -0.052993 -0.026564  0.052601      2.000000
 -0.026497 -0.026565  0.052768      2.000000
  0.000000  0.000000  0.079404      1.000000
  0.026497 -0.000000  0.079571      2.000000
  0.052993 -0.000001  0.079738      2.000000
  0.079490 -0.000001  0.079905      1.000000
  0.000000  0.026565  0.079405      2.000000
  0.026497  0.026565  0.079572      2.000000
  0.052993  0.026564  0.079738      2.000000
  0.079490  0.026564  0.079905      2.000000
 -0.052993  0.026566  0.079071      2.000000
 -0.026497  0.026565  0.079238      2.000000
  0.000000  0.053130  0.079405      2.000000
  0.026497  0.053130  0.079572      2.000000
  0.052993  0.053130  0.079739      2.000000
  0.079490  0.053129  0.079906      2.000000
 -0.052993  0.053131  0.079071      2.000000
 -0.026497  0.053131  0.079238      2.000000
  0.000000  0.079695  0.079406      1.000000
  0.026497  0.079695  0.079573      2.000000
  0.052993  0.079695  0.079740      2.000000
  0.079490  0.079694  0.079907      1.000000
 
 
 Subroutine IBZKPT_HF returns following result:
 ==============================================
 
 Found    216 k-points in 1st BZ
 the following    216 k-points will be used (e.g. in the exchange kernel)
 Following reciprocal coordinates:   # in IRBZ
  0.000000  0.000000  0.000000       1 t-inv F
  0.166667  0.000000  0.000000       2 t-inv F
  0.333333  0.000000  0.000000       3 t-inv F
  0.500000  0.000000  0.000000       4 t-inv F
  0.000000  0.166667  0.000000       5 t-inv F
  0.166667  0.166667  0.000000       6 t-inv F
  0.333333  0.166667  0.000000       7 t-inv F
  0.500000  0.166667  0.000000       8 t-inv F
 -0.333333  0.166667 -0.000000       9 t-inv F
 -0.166667  0.166667 -0.000000      10 t-inv F
  0.000000  0.333333  0.000000      11 t-inv F
  0.166667  0.333333  0.000000      12 t-inv F
  0.333333  0.333333  0.000000      13 t-inv F
  0.500000  0.333333  0.000000      14 t-inv F
 -0.333333  0.333333  0.000000      15 t-inv F
 -0.166667  0.333333 -0.000000      16 t-inv F
  0.000000  0.500000  0.000000      17 t-inv F
  0.166667  0.500000  0.000000      18 t-inv F
  0.333333  0.500000  0.000000      19 t-inv F
  0.500000  0.500000  0.000000      20 t-inv F
  0.000000  0.000000  0.166667      21 t-inv F
  0.166667  0.000000  0.166667      22 t-inv F
  0.333333  0.000000  0.166667      23 t-inv F
  0.500000  0.000000  0.166667      24 t-inv F
 -0.333333 -0.000000  0.166667      25 t-inv F
 -0.166667 -0.000000  0.166667      26 t-inv F
  0.000000  0.166667  0.166667      27 t-inv F
  0.166667  0.166667  0.166667      28 t-inv F
  0.333333  0.166667  0.166667      29 t-inv F
  0.500000  0.166667  0.166667      30 t-inv F
 -0.333333  0.166667  0.166667      31 t-inv F
 -0.166667  0.166667  0.166667      32 t-inv F
  0.000000  0.333333  0.166667      33 t-inv F
  0.166667  0.333333  0.166667      34 t-inv F
  0.333333  0.333333  0.166667      35 t-inv F
  0.500000  0.333333  0.166667      36 t-inv F
 -0.333333  0.333333  0.166667      37 t-inv F
 -0.166667  0.333333  0.166667      38 t-inv F
  0.000000  0.500000  0.166667      39 t-inv F
  0.166667  0.500000  0.166667      40 t-inv F
  0.333333  0.500000  0.166667      41 t-inv F
  0.500000  0.500000  0.166667      42 t-inv F
 -0.333333  0.500000  0.166667      43 t-inv F
 -0.166667  0.500000  0.166667      44 t-inv F
  0.000000 -0.333333  0.166667      45 t-inv F
  0.166667 -0.333333  0.166667      46 t-inv F
  0.333333 -0.333333  0.166667      47 t-inv F
  0.500000 -0.333333  0.166667      48 t-inv F
 -0.333333 -0.333333  0.166667      49 t-inv F
 -0.166667 -0.333333  0.166667      50 t-inv F
  0.000000 -0.166667  0.166667      51 t-inv F
  0.166667 -0.166667  0.166667      52 t-inv F
  0.333333 -0.166667  0.166667      53 t-inv F
  0.500000 -0.166667  0.166667      54 t-inv F
 -0.333333 -0.166667  0.166667      55 t-inv F
 -0.166667 -0.166667  0.166667      56 t-inv F
  0.000000  0.000000  0.333333      57 t-inv F
  0.166667  0.000000  0.333333      58 t-inv F
  0.333333  0.000000  0.333333      59 t-inv F
  0.500000  0.000000  0.333333      60 t-inv F
 -0.333333 -0.000000  0.333333      61 t-inv F
 -0.166667 -0.000000  0.333333      62 t-inv F
  0.000000  0.166667  0.333333      63 t-inv F
  0.166667  0.166667  0.333333      64 t-inv F
  0.333333  0.166667  0.333333      65 t-inv F
  0.500000  0.166667  0.333333      66 t-inv F
 -0.333333  0.166667  0.333333      67 t-inv F
 -0.166667  0.166667  0.333333      68 t-inv F
  0.000000  0.333333  0.333333      69 t-inv F
  0.166667  0.333333  0.333333      70 t-inv F
  0.333333  0.333333  0.333333      71 t-inv F
  0.500000  0.333333  0.333333      72 t-inv F
 -0.333333  0.333333  0.333333      73 t-inv F
 -0.166667  0.333333  0.333333      74 t-inv F
  0.000000  0.500000  0.333333      75 t-inv F
  0.166667  0.500000  0.333333      76 t-inv F
  0.333333  0.500000  0.333333      77 t-inv F
  0.500000  0.500000  0.333333      78 t-inv F
 -0.333333  0.500000  0.333333      79 t-inv F
 -0.166667  0.500000  0.333333      80 t-inv F
  0.000000 -0.333333  0.333333      81 t-inv F
  0.166667 -0.333333  0.333333      82 t-inv F
  0.333333 -0.333333  0.333333      83 t-inv F
  0.500000 -0.333333  0.333333      84 t-inv F
 -0.333333 -0.333333  0.333333      85 t-inv F
 -0.166667 -0.333333  0.333333      86 t-inv F
  0.000000 -0.166667  0.333333      87 t-inv F
  0.166667 -0.166667  0.333333      88 t-inv F
  0.333333 -0.166667  0.333333      89 t-inv F
  0.500000 -0.166667  0.333333      90 t-inv F
 -0.333333 -0.166667  0.333333      91 t-inv F
 -0.166667 -0.166667  0.333333      92 t-inv F
  0.000000  0.000000  0.500000      93 t-inv F
  0.166667  0.000000  0.500000      94 t-inv F
  0.333333  0.000000  0.500000      95 t-inv F
  0.500000  0.000000  0.500000      96 t-inv F
  0.000000  0.166667  0.500000      97 t-inv F
  0.166667  0.166667  0.500000      98 t-inv F
  0.333333  0.166667  0.500000      99 t-inv F
  0.500000  0.166667  0.500000     100 t-inv F
 -0.333333  0.166667  0.500000     101 t-inv F
 -0.166667  0.166667  0.500000     102 t-inv F
  0.000000  0.333333  0.500000     103 t-inv F
  0.166667  0.333333  0.500000     104 t-inv F
  0.333333  0.333333  0.500000     105 t-inv F
  0.500000  0.333333  0.500000     106 t-inv F
 -0.333333  0.333333  0.500000     107 t-inv F
 -0.166667  0.333333  0.500000     108 t-inv F
  0.000000  0.500000  0.500000     109 t-inv F
  0.166667  0.500000  0.500000     110 t-inv F
  0.333333  0.500000  0.500000     111 t-inv F
  0.500000  0.500000  0.500000     112 t-inv F
 -0.166667 -0.000000 -0.000000       2 t-inv T
 -0.333333 -0.000000  0.000000       3 t-inv T
  0.000000 -0.166667 -0.000000       5 t-inv T
 -0.166667 -0.166667 -0.000000       6 t-inv T
 -0.333333 -0.166667 -0.000000       7 t-inv T
 -0.500000 -0.166667 -0.000000       8 t-inv T
  0.333333 -0.166667  0.000000       9 t-inv T
  0.166667 -0.166667  0.000000      10 t-inv T
  0.000000 -0.333333 -0.000000      11 t-inv T
 -0.166667 -0.333333 -0.000000      12 t-inv T
 -0.333333 -0.333333 -0.000000      13 t-inv T
 -0.500000 -0.333333 -0.000000      14 t-inv T
  0.333333 -0.333333  0.000000      15 t-inv T
  0.166667 -0.333333  0.000000      16 t-inv T
 -0.166667 -0.500000 -0.000000      18 t-inv T
 -0.333333 -0.500000  0.000000      19 t-inv T
  0.000000  0.000000 -0.166667      21 t-inv T
 -0.166667 -0.000000 -0.166667      22 t-inv T
 -0.333333 -0.000000 -0.166667      23 t-inv T
 -0.500000  0.000000 -0.166667      24 t-inv T
  0.333333  0.000000 -0.166667      25 t-inv T
  0.166667  0.000000 -0.166667      26 t-inv T
  0.000000 -0.166667 -0.166667      27 t-inv T
 -0.166667 -0.166667 -0.166667      28 t-inv T
 -0.333333 -0.166667 -0.166667      29 t-inv T
 -0.500000 -0.166667 -0.166667      30 t-inv T
  0.333333 -0.166667 -0.166667      31 t-inv T
  0.166667 -0.166667 -0.166667      32 t-inv T
  0.000000 -0.333333 -0.166667      33 t-inv T
 -0.166667 -0.333333 -0.166667      34 t-inv T
 -0.333333 -0.333333 -0.166667      35 t-inv T
 -0.500000 -0.333333 -0.166667      36 t-inv T
  0.333333 -0.333333 -0.166667      37 t-inv T
  0.166667 -0.333333 -0.166667      38 t-inv T
  0.000000 -0.500000 -0.166667      39 t-inv T
 -0.166667 -0.500000 -0.166667      40 t-inv T
 -0.333333 -0.500000 -0.166667      41 t-inv T
 -0.500000 -0.500000 -0.166667      42 t-inv T
  0.333333 -0.500000 -0.166667      43 t-inv T
  0.166667 -0.500000 -0.166667      44 t-inv T
  0.000000  0.333333 -0.166667      45 t-inv T
 -0.166667  0.333333 -0.166667      46 t-inv T
 -0.333333  0.333333 -0.166667      47 t-inv T
 -0.500000  0.333333 -0.166667      48 t-inv T
  0.333333  0.333333 -0.166667      49 t-inv T
  0.166667  0.333333 -0.166667      50 t-inv T
  0.000000  0.166667 -0.166667      51 t-inv T
 -0.166667  0.166667 -0.166667      52 t-inv T
 -0.333333  0.166667 -0.166667      53 t-inv T
 -0.500000  0.166667 -0.166667      54 t-inv T
  0.333333  0.166667 -0.166667      55 t-inv T
  0.166667  0.166667 -0.166667      56 t-inv T
  0.000000  0.000000 -0.333333      57 t-inv T
 -0.166667 -0.000000 -0.333333      58 t-inv T
 -0.333333 -0.000000 -0.333333      59 t-inv T
 -0.500000  0.000000 -0.333333      60 t-inv T
  0.333333  0.000000 -0.333333      61 t-inv T
  0.166667  0.000000 -0.333333      62 t-inv T
  0.000000 -0.166667 -0.333333      63 t-inv T
 -0.166667 -0.166667 -0.333333      64 t-inv T
 -0.333333 -0.166667 -0.333333      65 t-inv T
 -0.500000 -0.166667 -0.333333      66 t-inv T
  0.333333 -0.166667 -0.333333      67 t-inv T
  0.166667 -0.166667 -0.333333      68 t-inv T
  0.000000 -0.333333 -0.333333      69 t-inv T
 -0.166667 -0.333333 -0.333333      70 t-inv T
 -0.333333 -0.333333 -0.333333      71 t-inv T
 -0.500000 -0.333333 -0.333333      72 t-inv T
  0.333333 -0.333333 -0.333333      73 t-inv T
  0.166667 -0.333333 -0.333333      74 t-inv T
  0.000000 -0.500000 -0.333333      75 t-inv T
 -0.166667 -0.500000 -0.333333      76 t-inv T
 -0.333333 -0.500000 -0.333333      77 t-inv T
 -0.500000 -0.500000 -0.333333      78 t-inv T
  0.333333 -0.500000 -0.333333      79 t-inv T
  0.166667 -0.500000 -0.333333      80 t-inv T
  0.000000  0.333333 -0.333333      81 t-inv T
 -0.166667  0.333333 -0.333333      82 t-inv T
 -0.333333  0.333333 -0.333333      83 t-inv T
 -0.500000  0.333333 -0.333333      84 t-inv T
  0.333333  0.333333 -0.333333      85 t-inv T
  0.166667  0.333333 -0.333333      86 t-inv T
  0.000000  0.166667 -0.333333      87 t-inv T
 -0.166667  0.166667 -0.333333      88 t-inv T
 -0.333333  0.166667 -0.333333      89 t-inv T
 -0.500000  0.166667 -0.333333      90 t-inv T
  0.333333  0.166667 -0.333333      91 t-inv T
  0.166667  0.166667 -0.333333      92 t-inv T
 -0.166667 -0.000000 -0.500000      94 t-inv T
 -0.333333 -0.000000 -0.500000      95 t-inv T
  0.000000 -0.166667 -0.500000      97 t-inv T
 -0.166667 -0.166667 -0.500000      98 t-inv T
 -0.333333 -0.166667 -0.500000      99 t-inv T
 -0.500000 -0.166667 -0.500000     100 t-inv T
  0.333333 -0.166667 -0.500000     101 t-inv T
  0.166667 -0.166667 -0.500000     102 t-inv T
  0.000000 -0.333333 -0.500000     103 t-inv T
 -0.166667 -0.333333 -0.500000     104 t-inv T
 -0.333333 -0.333333 -0.500000     105 t-inv T
 -0.500000 -0.333333 -0.500000     106 t-inv T
  0.333333 -0.333333 -0.500000     107 t-inv T
  0.166667 -0.333333 -0.500000     108 t-inv T
 -0.166667 -0.500000 -0.500000     110 t-inv T
 -0.333333 -0.500000 -0.500000     111 t-inv T


--------------------------------------------------------------------------------------------------------




 Dimension of arrays:
   k-points           NKPTS =    112   k-points in BZ     NKDIM =    216   number of bands    NBANDS=    128
   number of dos      NEDOS =    301   number of ions     NIONS =     12
   non local maximal  LDIM  =      6   non local SUM 2l+1 LMDIM =     18
   total plane-waves  NPLWV = 110592
   max r-space proj   IRMAX =      1   max aug-charges    IRDMAX=  25940
   dimension x,y,z NGX =    48 NGY =   48 NGZ =   48
   dimension x,y,z NGXF=    96 NGYF=   96 NGZF=   96
   support grid    NGXF=    96 NGYF=   96 NGZF=   96
   ions per type =               1   1   6   1   3
 NGX,Y,Z   is equivalent  to a cutoff of  12.69, 12.72, 12.67 a.u.
 NGXF,Y,Z  is equivalent  to a cutoff of  25.37, 25.44, 25.34 a.u.


 I would recommend the setting:
   dimension x,y,z NGX =    46 NGY =   46 NGZ =   46
 SYSTEM =  Name                                    
 POSCAR =  MA-Pb-I (Github)                        

 Startparameter for this run:
   NWRITE =      2    write-flag & timer
   PREC   = accura    normal or accurate (medium, high low for compatibility)
   ISTART =      0    job   : 0-new  1-cont  2-samecut
   ICHARG =      2    charge: 1-file 2-atom 10-const
   ISPIN  =      1    spin polarized calculation?
   LNONCOLLINEAR =      F non collinear calculations
   LSORBIT =      F    spin-orbit coupling
   INIWAV =      1    electr: 0-lowe 1-rand  2-diag
   LASPH  =      F    aspherical Exc in radial PAW
   METAGGA=      F    non-selfconsistent MetaGGA calc.

 Electronic Relaxation 1
   ENCUT  =  500.0 eV  36.75 Ry    6.06 a.u.  11.47 11.44 11.48*2*pi/ulx,y,z
   ENINI  =  500.0     initial cutoff
   ENAUG  =  644.9 eV  augmentation charge cutoff
   NELM   =     60;   NELMIN=  2; NELMDL=  0     # of ELM steps 
   EDIFF  = 0.1E-05   stopping-criterion for ELM
   LREAL  =      F    real-space projection
   NLSPLINE    = F    spline interpolate recip. space projectors
   LCOMPAT=      F    compatible to vasp.4.4
   GGA_COMPAT  = T    GGA compatible to vasp.4.4-vasp.4.6
   LMAXPAW     = -100 max onsite density
   LMAXMIX     =    2 max onsite mixed and CHGCAR
   VOSKOWN=      0    Vosko Wilk Nusair interpolation
   ROPT   =    0.00000   0.00000   0.00000   0.00000
   ROPT   =    0.00000
 Ionic relaxation
   EDIFFG = -.5E-02   stopping-criterion for IOM
   NSW    =      0    number of steps for IOM
   NBLOCK =      1;   KBLOCK =      1    inner block; outer block 
   IBRION =     -1    ionic relax: 0-MD 1-quasi-New 2-CG
   NFREE  =      1    steps in history (QN), initial steepest desc. (CG)
   ISIF   =      3    stress and relaxation
   IWAVPR =     10    prediction:  0-non 1-charg 2-wave 3-comb
   ISYM   =      2    0-nonsym 1-usesym 2-fastsym
   LCORR  =      T    Harris-Foulkes like correction to forces

   POTIM  = 0.5000    time-step for ionic-motion
   TEIN   =    0.0    initial temperature
   TEBEG  =    0.0;   TEEND  =   0.0 temperature during run
   SMASS  =  -3.00    Nose mass-parameter (am)
   estimated Nose-frequenzy (Omega)   =  0.10E-29 period in steps =****** mass=  -0.904E-27a.u.
   SCALEE = 1.0000    scale energy and forces
   NPACO  =    256;   APACO  = 16.0  distance and # of slots for P.C.
   PSTRESS=    0.0 pullay stress

  Mass of Ions in am
   POMASS =  12.01 14.00  1.00207.20126.90
  Ionic Valenz
   ZVAL   =   4.00  5.00  1.00 14.00  7.00
  Atomic Wigner-Seitz radii
   RWIGS  =  -1.00 -1.00 -1.00 -1.00 -1.00
  virtual crystal weights 
   VCA    =   1.00  1.00  1.00  1.00  1.00
   NELECT =      50.0000    total number of electrons
   NUPDOWN=      -1.0000    fix difference up-down

 DOS related values:
   EMIN   =  10.00;   EMAX   =-10.00  energy-range for DOS
   EFERMI =   0.00
   ISMEAR =     0;   SIGMA  =   0.01  broadening in eV -4-tet -1-fermi 0-gaus

 Electronic relaxation 2 (details)
   IALGO  =     58    algorithm
   LDIAG  =      T    sub-space diagonalisation (order eigenvalues)
   LSUBROT=      F    optimize rotation matrix (better conditioning)
   TURBO    =      0    0=normal 1=particle mesh
   IRESTART =      0    0=no restart 2=restart with 2 vectors
   NREBOOT  =      0    no. of reboots
   NMIN     =      0    reboot dimension
   EREF     =   0.00    reference energy to select bands
   IMIX   =      4    mixing-type and parameters
     AMIX     =   0.40;   BMIX     =  1.00
     AMIX_MAG =   1.60;   BMIX_MAG =  1.00
     AMIN     =   0.01
     WC   =   100.;   INIMIX=   1;  MIXPRE=   1;  MAXMIX= -45

 Intra band minimization:
   WEIMIN = 0.0000     energy-eigenvalue tresh-hold
   EBREAK =  0.20E-08  absolut break condition
   DEPER  =   0.30     relativ break condition  

   TIME   =   0.40     timestep for ELM

  volume/ion in A,a.u.               =      20.71       139.75
  Fermi-wavevector in a.u.,A,eV,Ry     =   0.959306  1.812825 12.520994  0.920267
  Thomas-Fermi vector in A             =   2.088490
 
 Write flags
   LWAVE  =      T    write WAVECAR
   LCHARG =      T    write CHGCAR
   LVTOT  =      F    write LOCPOT, total local potential
   LVHAR  =      F    write LOCPOT, Hartree potential only
   LELF   =      F    write electronic localiz. function (ELF)
   LORBIT =     10    0 simple, 1 ext, 2 COOP (PROOUT)


 Dipole corrections
   LMONO  =      F    monopole corrections only (constant potential shift)
   LDIPOL =      F    correct potential (dipole corrections)
   IDIPOL =      0    1-x, 2-y, 3-z, 4-all directions 
   EPSILON=  1.0000000 bulk dielectric constant

 Core level calculations are selected ICORELEVEL =  1
 Exchange correlation treatment:
   GGA     =    PE    GGA type
   LEXCH   =     8    internal setting for exchange type
   VOSKOWN=      0    Vosko Wilk Nusair interpolation
   EXXOEP  =     0    0=HF, 1=EXX-LHF (local Hartree Fock) 2=EXX OEP
   LHFCALC =     T    Hartree Fock is set to
   LSYMGRAD=     F    symmetrize gradient (conserves proper symmetry)
   PRECFOCK=fast      Normal, Fast or Accurate (Low or Medium for compatibility)
   LRHFCALC=     F    long range Hartree Fock
   LRSCOR  =     F    long range correlation only (use DFT for short range part)
   LTHOMAS =     F    Thomas Fermi screening in HF
   LMODELHF=     F    short range full HF, long range fraction AEXX
   ENCUT4O =  -1.0   cutoff for four orbital integrals eV
   LMAXFOCK=     4    L truncation for augmentation on plane wave grid
   LMAXFOCKAE=  -1    L truncation for all-electron charge restoration on plane wave grid
   NMAXFOCKAE=   1    number of basis functions for all-electron charge restoration
   LFOCKAEDFT=     F  apply the AE augmentation even for DFT
   NKREDX  =     1    reduce k-point grid by
   NKREDY  =     1    reduce k-point grid by
   NKREDZ  =     1    reduce k-point grid by
   SHIFTRED=     F    shift reduced grid of Gamma
   HFKIDENT=     F    idential grid for each k-point
   ODDONLY =     F    use only odd q-grid points
   EVENONLY=     F    use only even q-grid points
   HFALPHA =   -1.0000 decay constant for conv. correction
   MCALPHA =    0.0000 extent of test-charge in conv. correction in multipole expansion
   AEXX    =    0.2500 exact exchange contribution
   HFSCREEN=    0.2070 screening length (either q_TF or 0.3 A-1)
   HFSCREENC=   0.2070 screening length for correlation (either q_TF or 0.3 A-1)
   HFRCUT  =    0.0000 spherical cutoff for potential kernel
   ALDAX   =    0.7500 LDA exchange part
   AGGAX   =    0.7500 GGA exchange part
   ALDAC   =    1.0000 LDA correlation
   AGGAC   =    1.0000 GGA correlation
   NBANDSGWLOW=     1    first orbital included in HF term
   ENCUTFOCK=  -1.0 apply spherical cutoff to Coloumb kernel
 Linear response parameters
   LEPSILON=     F    determine dielectric tensor
   LRPA    =     F    only Hartree local field effects (RPA)
   LNABLA  =     F    use nabla operator in PAW spheres
   LVEL    =     F    velocity operator in full k-point grid
   LINTERFAST=   F  fast interpolation
   KINTER  =     0    interpolate to denser k-point grid
   CSHIFT  =0.1000    complex shift for real part using Kramers Kronig
   OMEGAMAX=  -1.0    maximum frequency
   DEG_THRESHOLD= 0.2000000E-02 threshold for treating states as degnerate
   RTIME   =    0.100 relaxation time in fs

 Orbital magnetization related:
   ORBITALMAG=     F  switch on orbital magnetization
   LCHIMAG   =     F  perturbation theory with respect to B field
   DQ        =  0.001000  dq finite difference perturbation B field



--------------------------------------------------------------------------------------------------------


 Static calculation
 charge density and potential will be updated during run
 non-spin polarized calculation
 Conjugate gradient for all bands (Freysoldt, et al. PRB 79, 241103 (2009))
 preconditioned conjugated gradient                                        
 perform sub-space diagonalisation
    before iterative eigenvector-optimisation
 modified Broyden-mixing scheme, WC =      100.0
 initial mixing is a Kerker type mixing with AMIX =  0.4000 and BMIX =      1.0000
 Hartree-type preconditioning will be used
 using additional bands          103
 reciprocal scheme for non local part
 use partial core corrections
 no Harris-corrections to forces 
 use gradient corrections 
 use of overlap-Matrix (Vanderbilt PP)
 Gauss-broadening in eV      SIGMA  =   0.01


--------------------------------------------------------------------------------------------------------


  energy-cutoff  :      500.00
  volume of cell :      248.50
      direct lattice vectors                 reciprocal lattice vectors
     6.290120125  0.000000000  0.000000000     0.158979476 -0.000001969  0.001001495
     0.000077694  6.273890018  0.000000000     0.000000000  0.159390744  0.000003893
    -0.039667571 -0.000153793  6.296915042     0.000000000  0.000000000  0.158807923

  length of vectors
     6.290120125  6.273890018  6.297039986     0.158982630  0.159390744  0.158807923


 
 k-points in units of 2pi/SCALE and weight: Automatic mesh                          
   0.00000000  0.00000000  0.00000000       0.005
   0.02649658 -0.00000033  0.00016692       0.009
   0.05299316 -0.00000066  0.00033383       0.009
   0.07948974 -0.00000098  0.00050075       0.005
   0.00000000  0.02656512  0.00000065       0.009
   0.02649658  0.02656480  0.00016756       0.009
   0.05299316  0.02656447  0.00033448       0.009
   0.07948974  0.02656414  0.00050140       0.009
  -0.05299316  0.02656578 -0.00033318       0.009
  -0.02649658  0.02656545 -0.00016627       0.009
   0.00000000  0.05313025  0.00000130       0.009
   0.02649658  0.05312992  0.00016821       0.009
   0.05299316  0.05312959  0.00033513       0.009
   0.07948974  0.05312926  0.00050205       0.009
  -0.05299316  0.05313090 -0.00033253       0.009
  -0.02649658  0.05313058 -0.00016562       0.009
   0.00000000  0.07969537  0.00000195       0.005
   0.02649658  0.07969504  0.00016886       0.009
   0.05299316  0.07969472  0.00033578       0.009
   0.07948974  0.07969439  0.00050269       0.005
   0.00000000  0.00000000  0.02646799       0.009
   0.02649658 -0.00000033  0.02663490       0.009
   0.05299316 -0.00000066  0.02680182       0.009
   0.07948974 -0.00000098  0.02696873       0.009
  -0.05299316  0.00000066  0.02613416       0.009
  -0.02649658  0.00000033  0.02630107       0.009
   0.00000000  0.02656512  0.02646864       0.009
   0.02649658  0.02656480  0.02663555       0.009
   0.05299316  0.02656447  0.02680247       0.009
   0.07948974  0.02656414  0.02696938       0.009
  -0.05299316  0.02656578  0.02613480       0.009
  -0.02649658  0.02656545  0.02630172       0.009
   0.00000000  0.05313025  0.02646928       0.009
   0.02649658  0.05312992  0.02663620       0.009
   0.05299316  0.05312959  0.02680312       0.009
   0.07948974  0.05312926  0.02697003       0.009
  -0.05299316  0.05313090  0.02613545       0.009
  -0.02649658  0.05313058  0.02630237       0.009
   0.00000000  0.07969537  0.02646993       0.009
   0.02649658  0.07969504  0.02663685       0.009
   0.05299316  0.07969472  0.02680377       0.009
   0.07948974  0.07969439  0.02697068       0.009
  -0.05299316  0.07969603  0.02613610       0.009
  -0.02649658  0.07969570  0.02630302       0.009
   0.00000000 -0.05313025  0.02646669       0.009
   0.02649658 -0.05313058  0.02663361       0.009
   0.05299316 -0.05313090  0.02680052       0.009
   0.07948974 -0.05313123  0.02696744       0.009
  -0.05299316 -0.05312959  0.02613286       0.009
  -0.02649658 -0.05312992  0.02629977       0.009
   0.00000000 -0.02656512  0.02646734       0.009
   0.02649658 -0.02656545  0.02663425       0.009
   0.05299316 -0.02656578  0.02680117       0.009
   0.07948974 -0.02656611  0.02696809       0.009
  -0.05299316 -0.02656447  0.02613351       0.009
  -0.02649658 -0.02656480  0.02630042       0.009
   0.00000000  0.00000000  0.05293597       0.009
   0.02649658 -0.00000033  0.05310289       0.009
   0.05299316 -0.00000066  0.05326981       0.009
   0.07948974 -0.00000098  0.05343672       0.009
  -0.05299316  0.00000066  0.05260214       0.009
  -0.02649658  0.00000033  0.05276906       0.009
   0.00000000  0.02656512  0.05293662       0.009
   0.02649658  0.02656480  0.05310354       0.009
   0.05299316  0.02656447  0.05327045       0.009
   0.07948974  0.02656414  0.05343737       0.009
  -0.05299316  0.02656578  0.05260279       0.009
  -0.02649658  0.02656545  0.05276971       0.009
   0.00000000  0.05313025  0.05293727       0.009
   0.02649658  0.05312992  0.05310419       0.009
   0.05299316  0.05312959  0.05327110       0.009
   0.07948974  0.05312926  0.05343802       0.009
  -0.05299316  0.05313090  0.05260344       0.009
  -0.02649658  0.05313058  0.05277036       0.009
   0.00000000  0.07969537  0.05293792       0.009
   0.02649658  0.07969504  0.05310484       0.009
   0.05299316  0.07969472  0.05327175       0.009
   0.07948974  0.07969439  0.05343867       0.009
  -0.05299316  0.07969603  0.05260409       0.009
  -0.02649658  0.07969570  0.05277100       0.009
   0.00000000 -0.05313025  0.05293468       0.009
   0.02649658 -0.05313058  0.05310159       0.009
   0.05299316 -0.05313090  0.05326851       0.009
   0.07948974 -0.05313123  0.05343542       0.009
  -0.05299316 -0.05312959  0.05260085       0.009
  -0.02649658 -0.05312992  0.05276776       0.009
   0.00000000 -0.02656512  0.05293533       0.009
   0.02649658 -0.02656545  0.05310224       0.009
   0.05299316 -0.02656578  0.05326916       0.009
   0.07948974 -0.02656611  0.05343607       0.009
  -0.05299316 -0.02656447  0.05260149       0.009
  -0.02649658 -0.02656480  0.05276841       0.009
   0.00000000  0.00000000  0.07940396       0.005
   0.02649658 -0.00000033  0.07957088       0.009
   0.05299316 -0.00000066  0.07973779       0.009
   0.07948974 -0.00000098  0.07990471       0.005
   0.00000000  0.02656512  0.07940461       0.009
   0.02649658  0.02656480  0.07957153       0.009
   0.05299316  0.02656447  0.07973844       0.009
   0.07948974  0.02656414  0.07990536       0.009
  -0.05299316  0.02656578  0.07907078       0.009
  -0.02649658  0.02656545  0.07923769       0.009
   0.00000000  0.05313025  0.07940526       0.009
   0.02649658  0.05312992  0.07957218       0.009
   0.05299316  0.05312959  0.07973909       0.009
   0.07948974  0.05312926  0.07990601       0.009
  -0.05299316  0.05313090  0.07907143       0.009
  -0.02649658  0.05313058  0.07923834       0.009
   0.00000000  0.07969537  0.07940591       0.005
   0.02649658  0.07969504  0.07957282       0.009
   0.05299316  0.07969472  0.07973974       0.009
   0.07948974  0.07969439  0.07990666       0.005
 
 k-points in reciprocal lattice and weights: Automatic mesh                          
   0.00000000  0.00000000  0.00000000       0.005
   0.16666667  0.00000000  0.00000000       0.009
   0.33333333  0.00000000  0.00000000       0.009
   0.50000000  0.00000000  0.00000000       0.005
   0.00000000  0.16666667  0.00000000       0.009
   0.16666667  0.16666667  0.00000000       0.009
   0.33333333  0.16666667  0.00000000       0.009
   0.50000000  0.16666667  0.00000000       0.009
  -0.33333333  0.16666667 -0.00000000       0.009
  -0.16666667  0.16666667 -0.00000000       0.009
   0.00000000  0.33333333  0.00000000       0.009
   0.16666667  0.33333333  0.00000000       0.009
   0.33333333  0.33333333  0.00000000       0.009
   0.50000000  0.33333333  0.00000000       0.009
  -0.33333333  0.33333333  0.00000000       0.009
  -0.16666667  0.33333333 -0.00000000       0.009
   0.00000000  0.50000000  0.00000000       0.005
   0.16666667  0.50000000  0.00000000       0.009
   0.33333333  0.50000000  0.00000000       0.009
   0.50000000  0.50000000  0.00000000       0.005
   0.00000000  0.00000000  0.16666667       0.009
   0.16666667  0.00000000  0.16666667       0.009
   0.33333333  0.00000000  0.16666667       0.009
   0.50000000  0.00000000  0.16666667       0.009
  -0.33333333 -0.00000000  0.16666667       0.009
  -0.16666667 -0.00000000  0.16666667       0.009
   0.00000000  0.16666667  0.16666667       0.009
   0.16666667  0.16666667  0.16666667       0.009
   0.33333333  0.16666667  0.16666667       0.009
   0.50000000  0.16666667  0.16666667       0.009
  -0.33333333  0.16666667  0.16666667       0.009
  -0.16666667  0.16666667  0.16666667       0.009
   0.00000000  0.33333333  0.16666667       0.009
   0.16666667  0.33333333  0.16666667       0.009
   0.33333333  0.33333333  0.16666667       0.009
   0.50000000  0.33333333  0.16666667       0.009
  -0.33333333  0.33333333  0.16666667       0.009
  -0.16666667  0.33333333  0.16666667       0.009
   0.00000000  0.50000000  0.16666667       0.009
   0.16666667  0.50000000  0.16666667       0.009
   0.33333333  0.50000000  0.16666667       0.009
   0.50000000  0.50000000  0.16666667       0.009
  -0.33333333  0.50000000  0.16666667       0.009
  -0.16666667  0.50000000  0.16666667       0.009
   0.00000000 -0.33333333  0.16666667       0.009
   0.16666667 -0.33333333  0.16666667       0.009
   0.33333333 -0.33333333  0.16666667       0.009
   0.50000000 -0.33333333  0.16666667       0.009
  -0.33333333 -0.33333333  0.16666667       0.009
  -0.16666667 -0.33333333  0.16666667       0.009
   0.00000000 -0.16666667  0.16666667       0.009
   0.16666667 -0.16666667  0.16666667       0.009
   0.33333333 -0.16666667  0.16666667       0.009
   0.50000000 -0.16666667  0.16666667       0.009
  -0.33333333 -0.16666667  0.16666667       0.009
  -0.16666667 -0.16666667  0.16666667       0.009
   0.00000000  0.00000000  0.33333333       0.009
   0.16666667  0.00000000  0.33333333       0.009
   0.33333333  0.00000000  0.33333333       0.009
   0.50000000  0.00000000  0.33333333       0.009
  -0.33333333 -0.00000000  0.33333333       0.009
  -0.16666667 -0.00000000  0.33333333       0.009
   0.00000000  0.16666667  0.33333333       0.009
   0.16666667  0.16666667  0.33333333       0.009
   0.33333333  0.16666667  0.33333333       0.009
   0.50000000  0.16666667  0.33333333       0.009
  -0.33333333  0.16666667  0.33333333       0.009
  -0.16666667  0.16666667  0.33333333       0.009
   0.00000000  0.33333333  0.33333333       0.009
   0.16666667  0.33333333  0.33333333       0.009
   0.33333333  0.33333333  0.33333333       0.009
   0.50000000  0.33333333  0.33333333       0.009
  -0.33333333  0.33333333  0.33333333       0.009
  -0.16666667  0.33333333  0.33333333       0.009
   0.00000000  0.50000000  0.33333333       0.009
   0.16666667  0.50000000  0.33333333       0.009
   0.33333333  0.50000000  0.33333333       0.009
   0.50000000  0.50000000  0.33333333       0.009
  -0.33333333  0.50000000  0.33333333       0.009
  -0.16666667  0.50000000  0.33333333       0.009
   0.00000000 -0.33333333  0.33333333       0.009
   0.16666667 -0.33333333  0.33333333       0.009
   0.33333333 -0.33333333  0.33333333       0.009
   0.50000000 -0.33333333  0.33333333       0.009
  -0.33333333 -0.33333333  0.33333333       0.009
  -0.16666667 -0.33333333  0.33333333       0.009
   0.00000000 -0.16666667  0.33333333       0.009
   0.16666667 -0.16666667  0.33333333       0.009
   0.33333333 -0.16666667  0.33333333       0.009
   0.50000000 -0.16666667  0.33333333       0.009
  -0.33333333 -0.16666667  0.33333333       0.009
  -0.16666667 -0.16666667  0.33333333       0.009
   0.00000000  0.00000000  0.50000000       0.005
   0.16666667  0.00000000  0.50000000       0.009
   0.33333333  0.00000000  0.50000000       0.009
   0.50000000  0.00000000  0.50000000       0.005
   0.00000000  0.16666667  0.50000000       0.009
   0.16666667  0.16666667  0.50000000       0.009
   0.33333333  0.16666667  0.50000000       0.009
   0.50000000  0.16666667  0.50000000       0.009
  -0.33333333  0.16666667  0.50000000       0.009
  -0.16666667  0.16666667  0.50000000       0.009
   0.00000000  0.33333333  0.50000000       0.009
   0.16666667  0.33333333  0.50000000       0.009
   0.33333333  0.33333333  0.50000000       0.009
   0.50000000  0.33333333  0.50000000       0.009
  -0.33333333  0.33333333  0.50000000       0.009
  -0.16666667  0.33333333  0.50000000       0.009
   0.00000000  0.50000000  0.50000000       0.005
   0.16666667  0.50000000  0.50000000       0.009
   0.33333333  0.50000000  0.50000000       0.009
   0.50000000  0.50000000  0.50000000       0.005
 
 position of ions in fractional coordinates (direct lattice) 
   0.90278000  0.99996299  0.99633503
   0.13658300  0.99982703  0.02487800
   0.86450797  0.99971300  0.82573497
   0.83779401  0.14375700  0.07192800
   0.83758902  0.85651600  0.07238300
   0.20758800  0.13427401  0.95813400
   0.20739301  0.86506301  0.95849699
   0.18201301  0.00000300  0.18535300
   0.47617099  0.50003099  0.47564700
   0.42680299  0.49988300  0.97260898
   0.43586001  0.00004500  0.50654203
   0.96289802  0.50022697  0.44774699
 
 position of ions in cartesian coordinates  (Angst):
   5.63915012  6.27350457  6.27383704
   0.85821431  6.27280098  0.15665466
   5.40518177  6.27196244  5.19958297
   5.26698290  0.90190455  0.45292452
   5.26573087  5.37367608  0.45578961
   1.26775705  0.84227299  6.03328837
   1.26657288  5.42716279  6.03557410
   1.13753116 -0.00000968  1.16715207
   2.97634380  3.13706631  2.99510876
   2.64609990  3.13606136  6.12443614
   2.72151852  0.00020442  3.18965211
   6.03902202  3.13830016  2.81942477
 


--------------------------------------------------------------------------------------------------------


 k-point  1 :   0.0000 0.0000 0.0000  plane waves:    6329
 k-point  2 :   0.1667 0.0000 0.0000  plane waves:    6328
 k-point  3 :   0.3333 0.0000 0.0000  plane waves:    6330
 k-point  4 :   0.5000 0.0000 0.0000  plane waves:    6342
 k-point  5 :   0.0000 0.1667 0.0000  plane waves:    6328
 k-point  6 :   0.1667 0.1667 0.0000  plane waves:    6317
 k-point  7 :   0.3333 0.1667 0.0000  plane waves:    6315
 k-point  8 :   0.5000 0.1667 0.0000  plane waves:    6314
 k-point  9 :  -0.3333 0.1667-0.0000  plane waves:    6315
 k-point 10 :  -0.1667 0.1667-0.0000  plane waves:    6317
 k-point 11 :   0.0000 0.3333 0.0000  plane waves:    6327
 k-point 12 :   0.1667 0.3333 0.0000  plane waves:    6315
 k-point 13 :   0.3333 0.3333 0.0000  plane waves:    6301
 k-point 14 :   0.5000 0.3333 0.0000  plane waves:    6298
 k-point 15 :  -0.3333 0.3333 0.0000  plane waves:    6301
 k-point 16 :  -0.1667 0.3333-0.0000  plane waves:    6315
 k-point 17 :   0.0000 0.5000 0.0000  plane waves:    6358
 k-point 18 :   0.1667 0.5000 0.0000  plane waves:    6316
 k-point 19 :   0.3333 0.5000 0.0000  plane waves:    6298
 k-point 20 :   0.5000 0.5000 0.0000  plane waves:    6272
 k-point 21 :   0.0000 0.0000 0.1667  plane waves:    6326
 k-point 22 :   0.1667 0.0000 0.1667  plane waves:    6318
 k-point 23 :   0.3333 0.0000 0.1667  plane waves:    6320
 k-point 24 :   0.5000 0.0000 0.1667  plane waves:    6316
 k-point 25 :  -0.3333-0.0000 0.1667  plane waves:    6311
 k-point 26 :  -0.1667-0.0000 0.1667  plane waves:    6308
 k-point 27 :   0.0000 0.1667 0.1667  plane waves:    6315
 k-point 28 :   0.1667 0.1667 0.1667  plane waves:    6321
 k-point 29 :   0.3333 0.1667 0.1667  plane waves:    6318
 k-point 30 :   0.5000 0.1667 0.1667  plane waves:    6300
 k-point 31 :  -0.3333 0.1667 0.1667  plane waves:    6317
 k-point 32 :  -0.1667 0.1667 0.1667  plane waves:    6331
 k-point 33 :   0.0000 0.3333 0.1667  plane waves:    6315
 k-point 34 :   0.1667 0.3333 0.1667  plane waves:    6311
 k-point 35 :   0.3333 0.3333 0.1667  plane waves:    6304
 k-point 36 :   0.5000 0.3333 0.1667  plane waves:    6304
 k-point 37 :  -0.3333 0.3333 0.1667  plane waves:    6307
 k-point 38 :  -0.1667 0.3333 0.1667  plane waves:    6311
 k-point 39 :   0.0000 0.5000 0.1667  plane waves:    6308
 k-point 40 :   0.1667 0.5000 0.1667  plane waves:    6305
 k-point 41 :   0.3333 0.5000 0.1667  plane waves:    6316
 k-point 42 :   0.5000 0.5000 0.1667  plane waves:    6300
 k-point 43 :  -0.3333 0.5000 0.1667  plane waves:    6297
 k-point 44 :  -0.1667 0.5000 0.1667  plane waves:    6306
 k-point 45 :   0.0000-0.3333 0.1667  plane waves:    6315
 k-point 46 :   0.1667-0.3333 0.1667  plane waves:    6311
 k-point 47 :   0.3333-0.3333 0.1667  plane waves:    6304
 k-point 48 :   0.5000-0.3333 0.1667  plane waves:    6304
 k-point 49 :  -0.3333-0.3333 0.1667  plane waves:    6306
 k-point 50 :  -0.1667-0.3333 0.1667  plane waves:    6311
 k-point 51 :   0.0000-0.1667 0.1667  plane waves:    6314
 k-point 52 :   0.1667-0.1667 0.1667  plane waves:    6321
 k-point 53 :   0.3333-0.1667 0.1667  plane waves:    6318
 k-point 54 :   0.5000-0.1667 0.1667  plane waves:    6300
 k-point 55 :  -0.3333-0.1667 0.1667  plane waves:    6317
 k-point 56 :  -0.1667-0.1667 0.1667  plane waves:    6331
 k-point 57 :   0.0000 0.0000 0.3333  plane waves:    6323
 k-point 58 :   0.1667 0.0000 0.3333  plane waves:    6319
 k-point 59 :   0.3333 0.0000 0.3333  plane waves:    6300
 k-point 60 :   0.5000 0.0000 0.3333  plane waves:    6301
 k-point 61 :  -0.3333-0.0000 0.3333  plane waves:    6306
 k-point 62 :  -0.1667-0.0000 0.3333  plane waves:    6310
 k-point 63 :   0.0000 0.1667 0.3333  plane waves:    6313
 k-point 64 :   0.1667 0.1667 0.3333  plane waves:    6320
 k-point 65 :   0.3333 0.1667 0.3333  plane waves:    6309
 k-point 66 :   0.5000 0.1667 0.3333  plane waves:    6307
 k-point 67 :  -0.3333 0.1667 0.3333  plane waves:    6303
 k-point 68 :  -0.1667 0.1667 0.3333  plane waves:    6322
 k-point 69 :   0.0000 0.3333 0.3333  plane waves:    6301
 k-point 70 :   0.1667 0.3333 0.3333  plane waves:    6305
 k-point 71 :   0.3333 0.3333 0.3333  plane waves:    6316
 k-point 72 :   0.5000 0.3333 0.3333  plane waves:    6296
 k-point 73 :  -0.3333 0.3333 0.3333  plane waves:    6297
 k-point 74 :  -0.1667 0.3333 0.3333  plane waves:    6298
 k-point 75 :   0.0000 0.5000 0.3333  plane waves:    6298
 k-point 76 :   0.1667 0.5000 0.3333  plane waves:    6318
 k-point 77 :   0.3333 0.5000 0.3333  plane waves:    6300
 k-point 78 :   0.5000 0.5000 0.3333  plane waves:    6278
 k-point 79 :  -0.3333 0.5000 0.3333  plane waves:    6298
 k-point 80 :  -0.1667 0.5000 0.3333  plane waves:    6300
 k-point 81 :   0.0000-0.3333 0.3333  plane waves:    6301
 k-point 82 :   0.1667-0.3333 0.3333  plane waves:    6305
 k-point 83 :   0.3333-0.3333 0.3333  plane waves:    6316
 k-point 84 :   0.5000-0.3333 0.3333  plane waves:    6296
 k-point 85 :  -0.3333-0.3333 0.3333  plane waves:    6297
 k-point 86 :  -0.1667-0.3333 0.3333  plane waves:    6299
 k-point 87 :   0.0000-0.1667 0.3333  plane waves:    6313
 k-point 88 :   0.1667-0.1667 0.3333  plane waves:    6320
 k-point 89 :   0.3333-0.1667 0.3333  plane waves:    6309
 k-point 90 :   0.5000-0.1667 0.3333  plane waves:    6307
 k-point 91 :  -0.3333-0.1667 0.3333  plane waves:    6303
 k-point 92 :  -0.1667-0.1667 0.3333  plane waves:    6321
 k-point 93 :   0.0000 0.0000 0.5000  plane waves:    6334
 k-point 94 :   0.1667 0.0000 0.5000  plane waves:    6312
 k-point 95 :   0.3333 0.0000 0.5000  plane waves:    6298
 k-point 96 :   0.5000 0.0000 0.5000  plane waves:    6272
 k-point 97 :   0.0000 0.1667 0.5000  plane waves:    6310
 k-point 98 :   0.1667 0.1667 0.5000  plane waves:    6306
 k-point 99 :   0.3333 0.1667 0.5000  plane waves:    6302
 k-point ** :   0.5000 0.1667 0.5000  plane waves:    6304
 k-point ** :  -0.3333 0.1667 0.5000  plane waves:    6302
 k-point ** :  -0.1667 0.1667 0.5000  plane waves:    6305
 k-point ** :   0.0000 0.3333 0.5000  plane waves:    6298
 k-point ** :   0.1667 0.3333 0.5000  plane waves:    6304
 k-point ** :   0.3333 0.3333 0.5000  plane waves:    6291
 k-point ** :   0.5000 0.3333 0.5000  plane waves:    6270
 k-point ** :  -0.3333 0.3333 0.5000  plane waves:    6293
 k-point ** :  -0.1667 0.3333 0.5000  plane waves:    6304
 k-point ** :   0.0000 0.5000 0.5000  plane waves:    6276
 k-point ** :   0.1667 0.5000 0.5000  plane waves:    6300
 k-point ** :   0.3333 0.5000 0.5000  plane waves:    6282
 k-point ** :   0.5000 0.5000 0.5000  plane waves:    6272

 maximum and minimum number of plane-waves per node :      6358     6270

 maximum number of plane-waves:      6358
 maximum index in each direction: 
   IXMAX=   11   IYMAX=   11   IZMAX=   11
   IXMIN=  -11   IYMIN=  -11   IZMIN=  -11

 NGX is ok and might be reduce to  46
 NGY is ok and might be reduce to  46
 NGZ is ok and might be reduce to  46

 serial   3D FFT for wavefunctions
 parallel 3D FFT for charge:
    minimum data exchange during FFTs selected (reduces bandwidth)


 FFT grid for exact exchange (Hartree Fock) 
  NGX = 24; NGY = 24; NGZ = 24

 
 Radii for the augmentation spheres in the non-local exchange
 for species   1 augmentation radius   0.944 (default was   0.699)
       energy cutoff for augmentation   2000.0
 for species   2 augmentation radius   0.957 (default was   0.709)
       energy cutoff for augmentation   2000.0
 for species   3 augmentation radius   0.702 (default was   0.520)
       energy cutoff for augmentation   2000.0
 for species   4 augmentation radius   1.558 (default was   1.154)
       energy cutoff for augmentation   2000.0
 for species   5 augmentation radius   1.603 (default was   1.188)
       energy cutoff for augmentation   2000.0

 total amount of memory used by VASP on root node   590029. kBytes
========================================================================

   base      :      30000. kBytes
   nonl-proj :     517324. kBytes
   fftplans  :        794. kBytes
   grid      :       5210. kBytes
   one-center:        186. kBytes
   HF        :        324. kBytes
   nonlr-proj:       1097. kBytes
   wavefun   :      35094. kBytes
 
     INWAV:  cpu time    0.00: real time    0.00
 Broyden mixing: mesh for mixing (old mesh)
   NGX = 23   NGY = 23   NGZ = 23
  (NGX  = 96   NGY  = 96   NGZ  = 96)
  gives a total of  12167 points

 initial charge density was supplied:
 charge density of overlapping atoms calculated
 number of electron      50.0000000 magnetization 
 charge density for first step will be calculated from the start-wavefunctions


--------------------------------------------------------------------------------------------------------


 Maximum index for augmentation-charges          991 (set IRDMAX)


--------------------------------------------------------------------------------------------------------


 First call to EWALD:  gamma=   0.282
 Maximum number of real-space cells 3x 3x 3
 Maximum number of reciprocal cells 3x 3x 3

 FEWALD executed in parallel
    FEWALD:  cpu time    0.00: real time    0.00


----------------------------------------- Iteration    1(   1)  ---------------------------------------


    POTLOK:  cpu time    0.06: real time    0.06
    SETDIJ:  cpu time    0.19: real time    0.23
    TRIAL :  cpu time   80.80: real time   81.24
    CORREC:  cpu time    0.00: real time    0.00
    --------------------------------------------
      LOOP:  cpu time   81.08: real time   81.56

 eigenvalue-minimisations  : 38144
 total energy-change (2. order) : 0.1430945E+04  (-0.1163904E+05)
 number of electron      50.0000000 magnetization 
 augmentation part       50.0000000 magnetization 

 Free energy of the ion-electron system (eV)
  ---------------------------------------------------
  alpha Z        PSCENC =        46.46595848
  Ewald energy   TEWEN  =     -1941.32201603
  -Hartree energ DENC   =     -1015.77699842
  -exchange      EXHF   =         0.00000000
  -V(xc)+E(xc)   XCENC  =        31.89644362
  PAW double counting   =      2588.52035627    -2506.37953360
  entropy T*S    EENTRO =        -0.00039095
  eigenvalues    EBANDS =      1142.51588413
  atomic energy  EATOM  =      3085.02549811
  ---------------------------------------------------
  free energy    TOTEN  =      1430.94520162 eV

  energy without entropy =     1430.94559256  energy(sigma->0) =     1430.94539709


--------------------------------------------------------------------------------------------------------




----------------------------------------- Iteration    1(   2)  ---------------------------------------


    TRIAL :  cpu time  100.85: real time  101.56
    CORREC:  cpu time    0.00: real time    0.00
    --------------------------------------------
      LOOP:  cpu time  100.85: real time  101.58

 eigenvalue-minimisations  : 43008
 total energy-change (2. order) :-0.1354144E+04  (-0.1246772E+04)
 number of electron      50.0000000 magnetization 
 augmentation part       50.0000000 magnetization 

 Free energy of the ion-electron system (eV)
  ---------------------------------------------------
  alpha Z        PSCENC =        46.46595848
  Ewald energy   TEWEN  =     -1941.32201603
  -Hartree energ DENC   =     -1015.77699842
  -exchange      EXHF   =         0.00000000
  -V(xc)+E(xc)   XCENC  =        31.89644362
  PAW double counting   =      2588.52035627    -2506.37953360
  entropy T*S    EENTRO =        -0.00016500
  eigenvalues    EBANDS =      -211.62871418
  atomic energy  EATOM  =      3085.02549811
  ---------------------------------------------------
  free energy    TOTEN  =        76.80082924 eV

  energy without entropy =       76.80099425  energy(sigma->0) =       76.80091175


--------------------------------------------------------------------------------------------------------




----------------------------------------- Iteration    1(   3)  ---------------------------------------


    TRIAL :  cpu time  123.85: real time  124.37
    CORREC:  cpu time    0.00: real time    0.00
    --------------------------------------------
      LOOP:  cpu time  123.85: real time  124.40

 eigenvalue-minimisations  : 46336
 total energy-change (2. order) :-0.4348080E+02  (-0.4234454E+02)
 number of electron      50.0000000 magnetization 
 augmentation part       50.0000000 magnetization 

 Free energy of the ion-electron system (eV)
  ---------------------------------------------------
  alpha Z        PSCENC =        46.46595848
  Ewald energy   TEWEN  =     -1941.32201603
  -Hartree energ DENC   =     -1015.77699842
  -exchange      EXHF   =         0.00000000
  -V(xc)+E(xc)   XCENC  =        31.89644362
  PAW double counting   =      2588.52035627    -2506.37953360
  entropy T*S    EENTRO =        -0.00000000
  eigenvalues    EBANDS =      -255.10968060
  atomic energy  EATOM  =      3085.02549811
  ---------------------------------------------------
  free energy    TOTEN  =        33.32002783 eV

  energy without entropy =       33.32002783  energy(sigma->0) =       33.32002783


--------------------------------------------------------------------------------------------------------




----------------------------------------- Iteration    1(   4)  ---------------------------------------


    TRIAL :  cpu time   47.19: real time   47.36
    CORREC:  cpu time    0.00: real time    0.00
    --------------------------------------------
      LOOP:  cpu time   47.20: real time   47.37

 eigenvalue-minimisations  : 28928
 total energy-change (2. order) :-0.1623635E+00  (-0.1623743E+00)
 number of electron      50.0000000 magnetization 
 augmentation part       50.0000000 magnetization 

 Free energy of the ion-electron system (eV)
  ---------------------------------------------------
  alpha Z        PSCENC =        46.46595848
  Ewald energy   TEWEN  =     -1941.32201603
  -Hartree energ DENC   =     -1015.77699842
  -exchange      EXHF   =         0.00000000
  -V(xc)+E(xc)   XCENC  =        31.89644362
  PAW double counting   =      2588.52035627    -2506.37953360
  entropy T*S    EENTRO =        -0.00000000
  eigenvalues    EBANDS =      -255.27204406
  atomic energy  EATOM  =      3085.02549811
  ---------------------------------------------------
  free energy    TOTEN  =        33.15766437 eV

  energy without entropy =       33.15766437  energy(sigma->0) =       33.15766437


--------------------------------------------------------------------------------------------------------




----------------------------------------- Iteration    1(   5)  ---------------------------------------


    TRIAL :  cpu time  200.39: real time  201.18
    CORREC:  cpu time    0.00: real time    0.00
    CHARGE:  cpu time    0.23: real time    0.23
    --------------------------------------------
      LOOP:  cpu time  200.62: real time  201.42

 eigenvalue-minimisations  : 57344
 total energy-change (2. order) :-0.5123727E-03  (-0.5127969E-03)
 number of electron      49.9999995 magnetization 
 augmentation part        1.2744194 magnetization 

 Free energy of the ion-electron system (eV)
  ---------------------------------------------------
  alpha Z        PSCENC =        46.46595848
  Ewald energy   TEWEN  =     -1941.32201603
  -Hartree energ DENC   =     -1015.77699842
  -exchange      EXHF   =         0.00000000
  -V(xc)+E(xc)   XCENC  =        31.89644362
  PAW double counting   =      2588.52035627    -2506.37953360
  entropy T*S    EENTRO =        -0.00000000
  eigenvalues    EBANDS =      -255.27255643
  atomic energy  EATOM  =      3085.02549811
  ---------------------------------------------------
  free energy    TOTEN  =        33.15715200 eV

  energy without entropy =       33.15715200  energy(sigma->0) =       33.15715200


--------------------------------------------------------------------------------------------------------




----------------------------------------- Iteration    1(   6)  ---------------------------------------


    POTLOK:  cpu time    0.06: real time    0.06
    SETDIJ:  cpu time    0.23: real time    0.23
    TRIAL :  cpu time 2187.31: real time 2196.37
    CORREC:  cpu time 2194.87: real time 2205.21
    CHARGE:  cpu time    0.23: real time    0.23
    --------------------------------------------
      LOOP:  cpu time 4382.70: real time 4402.12

 eigenvalue-minimisations  :     0
 total energy-change (2. order) :-0.9108731E+02  (-0.1239800E+01)
 number of electron      49.9999995 magnetization 
 augmentation part        1.3453178 magnetization 

 Free energy of the ion-electron system (eV)
  ---------------------------------------------------
  alpha Z        PSCENC =        46.46595848
  Ewald energy   TEWEN  =     -1941.32201603
  -Hartree energ DENC   =     -1031.09794231
  -exchange      EXHF   =        94.81692454
  -V(xc)+E(xc)   XCENC  =        34.23582518
  PAW double counting   =      4801.40859492    -4717.91410417
  entropy T*S    EENTRO =        -0.00000000
  eigenvalues    EBANDS =      -429.54889600
  atomic energy  EATOM  =      3085.02549811
  ---------------------------------------------------
  free energy    TOTEN  =       -57.93015727 eV

  energy without entropy =      -57.93015727  energy(sigma->0) =      -57.93015727


--------------------------------------------------------------------------------------------------------




----------------------------------------- Iteration    1(   7)  ---------------------------------------


    POTLOK:  cpu time    0.06: real time    0.06
    SETDIJ:  cpu time    0.23: real time    0.23
    TRIAL :  cpu time 2214.46: real time 2223.60
    CORREC:  cpu time 2208.72: real time 2218.85
    CHARGE:  cpu time    0.23: real time    0.23
    --------------------------------------------
      LOOP:  cpu time 4423.71: real time 4442.99

 eigenvalue-minimisations  :     0
 total energy-change (2. order) :-0.1254145E+01  (-0.5529380E+00)
 number of electron      49.9999995 magnetization 
 augmentation part        1.1181252 magnetization 

 Free energy of the ion-electron system (eV)
  ---------------------------------------------------
  alpha Z        PSCENC =        46.46595848
  Ewald energy   TEWEN  =     -1941.32201603
  -Hartree energ DENC   =     -1049.28547961
  -exchange      EXHF   =        95.41745610
  -V(xc)+E(xc)   XCENC  =        34.65768468
  PAW double counting   =      4625.84079256    -4542.24025814
  entropy T*S    EENTRO =        -0.00000000
  eigenvalues    EBANDS =      -413.74393886
  atomic energy  EATOM  =      3085.02549811
  ---------------------------------------------------
  free energy    TOTEN  =       -59.18430271 eV

  energy without entropy =      -59.18430271  energy(sigma->0) =      -59.18430271


--------------------------------------------------------------------------------------------------------




----------------------------------------- Iteration    1(   8)  ---------------------------------------


    POTLOK:  cpu time    0.06: real time    0.07
    SETDIJ:  cpu time    0.23: real time    0.23
