 vasp.5.4.1 24Jun15 (build Nov 25 2015 16:39:35) complex                        
  
 executed on         CrayXC-Intel date 2016.06.22  00:47:58
 running on  192 total cores
 distrk:  each k-point on  192 cores,    1 groups
 distr:  one band on NCORES_PER_BAND=  24 cores,    8 groups


--------------------------------------------------------------------------------------------------------


 INCAR:
 POTCAR:    PAW_PBE C 08Apr2002                   
 POTCAR:    PAW_PBE N 08Apr2002                   
 POTCAR:    PAW_PBE H 15Jun2001                   
 POTCAR:    PAW_PBE Pb_d 06Sep2000                
 POTCAR:    PAW_PBE I 08Apr2002                   
 POTCAR:    PAW_PBE C 08Apr2002                   
   VRHFIN =C: s2p2                                                              
   LEXCH  = PE                                                                  
   EATOM  =   147.1560 eV,   10.8157 Ry                                         
                                                                                
   TITEL  = PAW_PBE C 08Apr2002                                                 
   LULTRA =        F    use ultrasoft PP ?                                      
   IUNSCR =        1    unscreen: 0-lin 1-nonlin 2-no                           
   RPACOR =    1.200    partial core radius                                     
   POMASS =   12.011; ZVAL   =    4.000    mass and valenz                      
   RCORE  =    1.500    outmost cutoff radius                                   
   RWIGS  =    1.630; RWIGS  =    0.863    wigner-seitz radius (au A)           
   ENMAX  =  400.000; ENMIN  =  300.000 eV                                      
   ICORE  =        2    local potential                                         
   LCOR   =        T    correct aug charges                                     
   LPAW   =        T    paw PP                                                  
   EAUG   =  644.873                                                            
   DEXC   =    0.000                                                            
   RMAX   =    1.529    core radius for proj-oper                               
   RAUG   =    1.300    factor for augmentation sphere                          
   RDEP   =    1.501    radius for radial grids                                 
   RDEPT  =    1.300    core radius for aug-charge                              
                                                                                
   Atomic configuration                                                         
    4 entries                                                                   
     n  l   j            E        occ.                                          
     1  0  0.50      -273.3789   2.0000                                         
     2  0  0.50       -13.7508   2.0000                                         
     2  1  0.50        -5.2854   2.0000                                         
     3  2  1.50        -5.4423   0.0000                                         
   Description                                                                  
     l       E           TYP  RCUT    TYP  RCUT                                 
     0    -13.7508458     23  1.200                                             
     0     -8.2022199     23  1.200                                             
     1     -5.2854383     23  1.500                                             
     1     34.0145650     23  1.500                                             
     2     -5.4423304      7  1.500                                             
  local pseudopotential read in
  partial core-charges read in
  partial kinetic energy density read in
  atomic valenz-charges read in
  non local Contribution for L=           0  read in
    real space projection operators read in
  non local Contribution for L=           0  read in
    real space projection operators read in
  non local Contribution for L=           1  read in
    real space projection operators read in
  non local Contribution for L=           1  read in
    real space projection operators read in
    PAW grid and wavefunctions read in
 
   number of l-projection  operators is LMAX  =           4
   number of lm-projection operators is LMMAX =           8
 
 POTCAR:    PAW_PBE N 08Apr2002                   
   VRHFIN =N: s2p3                                                              
   LEXCH  = PE                                                                  
   EATOM  =   264.5486 eV,   19.4438 Ry                                         
                                                                                
   TITEL  = PAW_PBE N 08Apr2002                                                 
   LULTRA =        F    use ultrasoft PP ?                                      
   IUNSCR =        1    unscreen: 0-lin 1-nonlin 2-no                           
   RPACOR =    1.200    partial core radius                                     
   POMASS =   14.001; ZVAL   =    5.000    mass and valenz                      
   RCORE  =    1.500    outmost cutoff radius                                   
   RWIGS  =    1.400; RWIGS  =    0.741    wigner-seitz radius (au A)           
   ENMAX  =  400.000; ENMIN  =  300.000 eV                                      
   ICORE  =        2    local potential                                         
   LCOR   =        T    correct aug charges                                     
   LPAW   =        T    paw PP                                                  
   EAUG   =  627.112                                                            
   DEXC   =    0.000                                                            
   RMAX   =    1.529    core radius for proj-oper                               
   RAUG   =    1.300    factor for augmentation sphere                          
   RDEP   =    1.514    radius for radial grids                                 
   RDEPT  =    1.338    core radius for aug-charge                              
                                                                                
   Atomic configuration                                                         
    4 entries                                                                   
     n  l   j            E        occ.                                          
     1  0  0.50      -384.7179   2.0000                                         
     2  0  0.50       -18.5828   2.0000                                         
     2  1  0.50        -7.0898   3.0000                                         
     3  2  1.50        -6.8029   0.0000                                         
   Description                                                                  
     l       E           TYP  RCUT    TYP  RCUT                                 
     0    -18.5828119     23  1.200                                             
     0    -13.5018863     23  1.200                                             
     1     -7.0897853     23  1.500                                             
     1      9.5240782     23  1.500                                             
     2     -6.8029130      7  1.500                                             
  local pseudopotential read in
  partial core-charges read in
  partial kinetic energy density read in
  atomic valenz-charges read in
  non local Contribution for L=           0  read in
    real space projection operators read in
  non local Contribution for L=           0  read in
    real space projection operators read in
  non local Contribution for L=           1  read in
    real space projection operators read in
  non local Contribution for L=           1  read in
    real space projection operators read in
    PAW grid and wavefunctions read in
 
   number of l-projection  operators is LMAX  =           4
   number of lm-projection operators is LMMAX =           8
 
 POTCAR:    PAW_PBE H 15Jun2001                   
   VRHFIN =H: ultrasoft test                                                    
   LEXCH  = PE                                                                  
   EATOM  =    12.4884 eV,    0.9179 Ry                                         
                                                                                
   TITEL  = PAW_PBE H 15Jun2001                                                 
   LULTRA =        F    use ultrasoft PP ?                                      
   IUNSCR =        0    unscreen: 0-lin 1-nonlin 2-no                           
   RPACOR =    0.000    partial core radius                                     
   POMASS =    1.000; ZVAL   =    1.000    mass and valenz                      
   RCORE  =    1.100    outmost cutoff radius                                   
   RWIGS  =    0.700; RWIGS  =    0.370    wigner-seitz radius (au A)           
   ENMAX  =  250.000; ENMIN  =  200.000 eV                                      
   RCLOC  =    0.701    cutoff for local pot                                    
   LCOR   =        T    correct aug charges                                     
   LPAW   =        T    paw PP                                                  
   EAUG   =  400.000                                                            
   RMAX   =    1.123    core radius for proj-oper                               
   RAUG   =    1.200    factor for augmentation sphere                          
   RDEP   =    1.112    radius for radial grids                                 
   RDEPT  =    0.926    core radius for aug-charge                              
                                                                                
   Atomic configuration                                                         
    2 entries                                                                   
     n  l   j            E        occ.                                          
     1  0  0.50        -6.4927   1.0000                                         
     2  1  0.50        -3.4015   0.0000                                         
   Description                                                                  
     l       E           TYP  RCUT    TYP  RCUT                                 
     0     -6.4927494     23  1.100                                             
     0      6.8029130     23  1.100                                             
     1     -4.0817478     23  1.100                                             
  local pseudopotential read in
  atomic valenz-charges read in
  non local Contribution for L=           0  read in
    real space projection operators read in
  non local Contribution for L=           0  read in
    real space projection operators read in
  non local Contribution for L=           1  read in
    real space projection operators read in
    PAW grid and wavefunctions read in
 
   number of l-projection  operators is LMAX  =           3
   number of lm-projection operators is LMMAX =           5
 
 POTCAR:    PAW_PBE Pb_d 06Sep2000                
   VRHFIN =Pb:                                                                  
   LEXCH  = PE                                                                  
   EATOM  =  1661.6185 eV,  122.1255 Ry                                         
                                                                                
   TITEL  = PAW_PBE Pb_d 06Sep2000                                              
   LULTRA =        F    use ultrasoft PP ?                                      
   IUNSCR =        1    unscreen: 0-lin 1-nonlin 2-no                           
   RPACOR =    2.200    partial core radius                                     
   POMASS =  207.200; ZVAL   =   14.000    mass and valenz                      
   RCORE  =    2.500    outmost cutoff radius                                   
   RWIGS  =    3.260; RWIGS  =    1.725    wigner-seitz radius (au A)           
   ENMAX  =  237.835; ENMIN  =  178.376 eV                                      
   ICORE  =        3    local potential                                         
   LCOR   =        T    correct aug charges                                     
   LPAW   =        T    paw PP                                                  
   EAUG   =  391.914                                                            
   DEXC   =    0.000                                                            
   RMAX   =    2.565    core radius for proj-oper                               
   RAUG   =    1.300    factor for augmentation sphere                          
   RDEP   =    2.643    radius for radial grids                                 
   RDEPT  =    2.092    core radius for aug-charge                              
                                                                                
   Atomic configuration                                                         
   16 entries                                                                   
     n  l   j            E        occ.                                          
     1  0  0.50    -88091.8466   2.0000                                         
     2  0  0.50    -15753.4197   2.0000                                         
     2  1  1.50    -13508.1797   6.0000                                         
     3  0  0.50     -3781.7194   2.0000                                         
     3  1  1.50     -3138.2529   6.0000                                         
     3  2  2.50     -2483.2977  10.0000                                         
     4  0  0.50      -856.2895   2.0000                                         
     4  1  1.50      -645.4942   6.0000                                         
     4  2  2.50      -401.8768  10.0000                                         
     4  3  3.50      -132.9059  14.0000                                         
     5  0  0.50      -144.0950   2.0000                                         
     5  1  1.50       -85.7879   6.0000                                         
     5  2  2.50       -21.1769  10.0000                                         
     6  0  0.50       -12.0372   2.0000                                         
     6  1  1.50        -3.4971   2.0000                                         
     5  3  2.50        -2.7212   0.0000                                         
   Description                                                                  
     l       E           TYP  RCUT    TYP  RCUT                                 
     2    -21.1768523     23  2.500                                             
     2      1.3605826     23  2.500                                             
     0    -12.0371562     23  2.500                                             
     0     13.6058260     23  2.500                                             
     1     -3.4971339     23  2.500                                             
     1     13.6058260     23  2.500                                             
     3     -1.3605826      7  2.500                                             
  local pseudopotential read in
  partial core-charges read in
  partial kinetic energy density read in
  atomic valenz-charges read in
  non local Contribution for L=           2  read in
    real space projection operators read in
  non local Contribution for L=           2  read in
    real space projection operators read in
  non local Contribution for L=           0  read in
    real space projection operators read in
  non local Contribution for L=           0  read in
    real space projection operators read in
  non local Contribution for L=           1  read in
    real space projection operators read in
  non local Contribution for L=           1  read in
    real space projection operators read in
    PAW grid and wavefunctions read in
 
   number of l-projection  operators is LMAX  =           6
   number of lm-projection operators is LMMAX =          18
 
 POTCAR:    PAW_PBE I 08Apr2002                   
   VRHFIN =I : s2p5                                                             
   LEXCH  = PE                                                                  
   EATOM  =   315.8678 eV,   23.2156 Ry                                         
                                                                                
   TITEL  = PAW_PBE I 08Apr2002                                                 
   LULTRA =        F    use ultrasoft PP ?                                      
   IUNSCR =        1    unscreen: 0-lin 1-nonlin 2-no                           
   RPACOR =    2.200    partial core radius                                     
   POMASS =  126.904; ZVAL   =    7.000    mass and valenz                      
   RCORE  =    2.300    outmost cutoff radius                                   
   RWIGS  =    2.810; RWIGS  =    1.487    wigner-seitz radius (au A)           
   ENMAX  =  175.647; ENMIN  =  131.735 eV                                      
   ICORE  =        3    local potential                                         
   LCOR   =        T    correct aug charges                                     
   LPAW   =        T    paw PP                                                  
   EAUG   =  370.139                                                            
   DEXC   =    0.000                                                            
   RMAX   =    2.359    core radius for proj-oper                               
   RAUG   =    1.300    factor for augmentation sphere                          
   RDEP   =    2.392    radius for radial grids                                 
   RDEPT  =    2.170    core radius for aug-charge                              
                                                                                
   Atomic configuration                                                         
   13 entries                                                                   
     n  l   j            E        occ.                                          
     1  0  0.50    -32976.3739   2.0000                                         
     2  0  0.50     -5094.5933   2.0000                                         
     2  1  1.50     -4572.0131   6.0000                                         
     3  0  0.50     -1028.2813   2.0000                                         
     3  1  1.50      -859.0250   6.0000                                         
     3  2  2.50      -605.7620  10.0000                                         
     4  0  0.50      -180.5540   2.0000                                         
     4  1  1.50      -127.5306   6.0000                                         
     4  2  2.50       -50.2720  10.0000                                         
     5  0  0.50       -17.4058   2.0000                                         
     5  1  0.50        -7.0851   5.0000                                         
     5  2  1.50        -7.0750   0.0000                                         
     4  3  2.50        -7.0750   0.0000                                         
   Description                                                                  
     l       E           TYP  RCUT    TYP  RCUT                                 
     0    -17.4058016     23  2.300                                             
     0    -18.7663842     23  2.300                                             
     1     -7.0850686     23  2.300                                             
     1     -4.2150896     23  2.300                                             
     2     -7.0750295     23  2.300                                             
     3     -1.3605826     23  2.300                                             
  local pseudopotential read in
  partial core-charges read in
  partial kinetic energy density read in
  atomic valenz-charges read in
  non local Contribution for L=           0  read in
    real space projection operators read in
  non local Contribution for L=           0  read in
    real space projection operators read in
  non local Contribution for L=           1  read in
    real space projection operators read in
  non local Contribution for L=           1  read in
    real space projection operators read in
  non local Contribution for L=           2  read in
    real space projection operators read in
    PAW grid and wavefunctions read in
 
   number of l-projection  operators is LMAX  =           5
   number of lm-projection operators is LMMAX =          13
 

 ----------------------------------------------------------------------------- 
|                                                                             |
|  ADVICE TO THIS USER RUNNING 'VASP/VAMP'   (HEAR YOUR MASTER'S VOICE ...):  |
|                                                                             |
|      You have a (more or less) 'large supercell' and for larger cells       |
|      it might be more efficient to use real space projection opertators     |
|      So try LREAL= Auto  in the INCAR   file.                               |
|      Mind: At the moment your POTCAR file does not contain real space       |
|       projectors, and has to be modified,  BUT if you                       |
|      want to do an extremely  accurate calculation you might also keep the  |
|      reciprocal projection scheme          (i.e. LREAL=.FALSE.)             |
|                                                                             |
 ----------------------------------------------------------------------------- 


 ----------------------------------------------------------------------------- 
|                                                                             |
|  ADVICE TO THIS USER RUNNING 'VASP/VAMP'   (HEAR YOUR MASTER'S VOICE ...):  |
|                                                                             |
|      You enforced a specific xc-type in the INCAR file,                     |
|      a different type was found on the POTCAR file                          |
|          I HOPE YOU KNOW, WHAT YOU ARE  DOING                               |
|                                                                             |
 ----------------------------------------------------------------------------- 

  PAW_PBE C 08Apr2002                   :
 energy of atom  1       EATOM= -147.1560
 kinetic energy error for atom=    0.0032 (will be added to EATOM!!)
  PAW_PBE N 08Apr2002                   :
 energy of atom  2       EATOM= -264.5486
 kinetic energy error for atom=    0.0061 (will be added to EATOM!!)
  PAW_PBE H 15Jun2001                   :
 energy of atom  3       EATOM=  -12.4884
 kinetic energy error for atom=    0.0002 (will be added to EATOM!!)
  PAW_PBE Pb_d 06Sep2000                :
 energy of atom  4       EATOM=-1661.6185
 kinetic energy error for atom=    0.0012 (will be added to EATOM!!)
  PAW_PBE I 08Apr2002                   :
 energy of atom  5       EATOM= -315.8678
 kinetic energy error for atom=    0.0003 (will be added to EATOM!!)
 
 
 POSCAR: C N H Pb I                              
  positions in direct lattice
  No initial velocities read in
 exchange correlation table for  LEXCH =       14
   RHO(1)=    0.500       N(1)  =     2000
   RHO(2)=  100.500       N(2)  =     4000
 


--------------------------------------------------------------------------------------------------------


 ion  position               nearest neighbor table
   1  0.203  0.250  0.220-  33 1.10  25 1.10  17 1.10   9 1.49
   2  0.691  0.250  0.238-  34 1.10  26 1.10  18 1.10  10 1.49
   3  0.191  0.750  0.238-  35 1.10  27 1.10  19 1.10  11 1.49
   4  0.703  0.750  0.220-  36 1.10  28 1.10  20 1.10  12 1.49
   5  0.203  0.250  0.720-  37 1.10  29 1.10  21 1.10  13 1.49
   6  0.691  0.250  0.738-  38 1.10  30 1.10  22 1.10  14 1.49
   7  0.191  0.750  0.738-  39 1.10  31 1.10  23 1.10  15 1.49
   8  0.703  0.750  0.720-  40 1.10  32 1.10  24 1.10  16 1.49
   9  0.306  0.250  0.274-  57 1.04  41 1.05  49 1.05   1 1.49
  10  0.803  0.250  0.273-  42 1.05  50 1.05  58 1.05   2 1.49
  11  0.303  0.750  0.273-  43 1.05  51 1.05  59 1.05   3 1.49
  12  0.806  0.750  0.274-  60 1.04  44 1.05  52 1.05   4 1.49
  13  0.306  0.250  0.774-  61 1.04  45 1.05  53 1.05   5 1.49
  14  0.803  0.250  0.773-  46 1.05  54 1.05  62 1.05   6 1.49
  15  0.303  0.750  0.773-  47 1.05  55 1.05  63 1.05   7 1.49
  16  0.806  0.750  0.774-  64 1.04  48 1.05  56 1.05   8 1.49
  17  0.218  0.250  0.135-   1 1.10
  18  0.692  0.250  0.151-   2 1.10
  19  0.192  0.750  0.151-   3 1.10
  20  0.718  0.750  0.135-   4 1.10
  21  0.218  0.250  0.635-   5 1.10
  22  0.692  0.250  0.651-   6 1.10
  23  0.192  0.750  0.651-   7 1.10
  24  0.718  0.750  0.635-   8 1.10
  25  0.158  0.322  0.243-   1 1.10
  26  0.651  0.322  0.268-   2 1.10
  27  0.151  0.822  0.268-   3 1.10
  28  0.658  0.822  0.243-   4 1.10
  29  0.158  0.322  0.743-   5 1.10
  30  0.651  0.322  0.768-   6 1.10
  31  0.151  0.822  0.768-   7 1.10
  32  0.658  0.822  0.743-   8 1.10
  33  0.158  0.177  0.244-   1 1.10
  34  0.651  0.177  0.268-   2 1.10
  35  0.151  0.677  0.268-   3 1.10
  36  0.658  0.677  0.244-   4 1.10
  37  0.158  0.177  0.744-   5 1.10
  38  0.651  0.177  0.768-   6 1.10
  39  0.151  0.677  0.768-   7 1.10
  40  0.658  0.677  0.744-   8 1.10
  41  0.351  0.318  0.255-   9 1.05
  42  0.845  0.318  0.247-  10 1.05
  43  0.345  0.818  0.247-  11 1.05
  44  0.851  0.818  0.255-  12 1.05
  45  0.351  0.318  0.755-  13 1.05
  46  0.845  0.318  0.747-  14 1.05
  47  0.345  0.818  0.747-  15 1.05
  48  0.851  0.818  0.755-  16 1.05
  49  0.351  0.182  0.255-   9 1.05
  50  0.845  0.182  0.247-  10 1.05
  51  0.345  0.682  0.247-  11 1.05
  52  0.851  0.682  0.255-  12 1.05
  53  0.351  0.182  0.755-  13 1.05
  54  0.845  0.182  0.747-  14 1.05
  55  0.345  0.682  0.747-  15 1.05
  56  0.851  0.682  0.755-  16 1.05
  57  0.297  0.250  0.356-   9 1.04
  58  0.809  0.250  0.355-  10 1.05
  59  0.309  0.750  0.355-  11 1.05
  60  0.797  0.750  0.356-  12 1.04
  61  0.297  0.250  0.856-  13 1.04
  62  0.809  0.250  0.855-  14 1.05
  63  0.309  0.750  0.855-  15 1.05
  64  0.797  0.750  0.856-  16 1.04
  65  0.472  0.501  0.489-  90 3.09  85 3.14  87 3.16  77 3.17  73 3.22  89 3.26
  66  0.972  0.499  0.489-  89 3.09  88 3.14  86 3.16  78 3.17  74 3.22  90 3.26
  67  0.472  0.999  0.489-  92 3.09  85 3.14  87 3.16  79 3.17  75 3.22  91 3.26
  68  0.972  0.001  0.489-  91 3.09  88 3.14  86 3.16  80 3.17  76 3.22  92 3.26
  69  0.472  0.501  0.989-  94 3.09  81 3.14  83 3.16  73 3.17  77 3.22  93 3.26
  70  0.972  0.499  0.989-  93 3.09  84 3.14  82 3.16  74 3.17  78 3.22  94 3.26
  71  0.472  0.999  0.989-  96 3.09  81 3.14  83 3.16  75 3.17  79 3.22  95 3.26
  72  0.972  0.001  0.989-  95 3.09  84 3.14  82 3.16  76 3.17  80 3.22  96 3.26
  73  0.455  0.500  0.238-  69 3.17  65 3.22
  74  0.955  0.500  0.238-  70 3.17  66 3.22
  75  0.455  1.000  0.238-  71 3.17  67 3.22
  76  0.955  0.000  0.238-  72 3.17  68 3.22
  77  0.455  0.500  0.738-  65 3.17  69 3.22
  78  0.955  0.500  0.738-  66 3.17  70 3.22
  79  0.455  1.000  0.738-  67 3.17  71 3.22
  80  0.955  0.000  0.738-  68 3.17  72 3.22
  81  0.467  0.250  0.009-  71 3.14  69 3.14
  82  0.932  0.250  0.015-  72 3.16  70 3.16
  83  0.432  0.750  0.015-  69 3.16  71 3.16
  84  0.967  0.750  0.009-  70 3.14  72 3.14
  85  0.467  0.250  0.509-  67 3.14  65 3.14
  86  0.932  0.250  0.515-  68 3.16  66 3.16
  87  0.432  0.750  0.515-  65 3.16  67 3.16
  88  0.967  0.750  0.509-  66 3.14  68 3.14
  89  0.216  0.479  0.461-  66 3.09  65 3.26
  90  0.716  0.521  0.461-  65 3.09  66 3.26
  91  0.216  0.021  0.461-  68 3.09  67 3.26
  92  0.716  0.979  0.461-  67 3.09  68 3.26
  93  0.216  0.479  0.961-  70 3.09  69 3.26
  94  0.716  0.521  0.961-  69 3.09  70 3.26
  95  0.216  0.021  0.961-  72 3.09  71 3.26
  96  0.716  0.979  0.961-  71 3.09  72 3.26
 
  LATTYP: Found a triclinic cell.
 ALAT       =    17.8238589327
 B/A-ratio  =     0.6989248630
 C/A-ratio  =     1.0156975818
 COS(alpha) =     0.0001355172
 COS(beta)  =     0.5146378593
 COS(gamma) =     0.6988877578
  
  Lattice vectors:
  
 A1 = (  -0.1406063366, -12.4576271275, -12.7466742118)
 A2 = (  -0.0011956322, -12.4575380825,   0.0007464135)
 A3 = ( -12.7162481321,  -0.0020049566, -12.8856194186)


Analysis of symmetry for initial positions (statically):
=====================================================================
 Subroutine PRICEL returns following result:
 
  LATTYP: Found a triclinic cell.
 ALAT       =     8.8502626515
 B/A-ratio  =     1.4075896561
 C/A-ratio  =     0.7202149489
 COS(alpha) =     0.0000518785
 COS(beta)  =     0.0156138721
 COS(gamma) =     0.7036188608
  
  Lattice vectors:
  
 A1 = (  -6.2878208978,   6.2278110854,  -0.0694726034)
 A2 = (   0.0011956322,  12.4575380825,  -0.0007464135)
 A3 = (  -0.0697053522,  -0.0000445225,  -6.3737103126)
 
   4 primitive cells build up your supercell.
 

 Routine SETGRP: Setting up the symmetry group for a 
 triclinic supercell.


 Subroutine GETGRP returns: Found  1 space group operations
 (whereof  1 operations were pure point group operations)
 out of a pool of  2 trial point group operations.


The static configuration has the point symmetry C_1 .


Analysis of symmetry for dynamics (positions and initial velocities):
=====================================================================
 Subroutine PRICEL returns following result:
 
  LATTYP: Found a triclinic cell.
 ALAT       =     8.8502626515
 B/A-ratio  =     1.4075896561
 C/A-ratio  =     0.7202149489
 COS(alpha) =     0.0000518785
 COS(beta)  =     0.0156138721
 COS(gamma) =     0.7036188608
  
  Lattice vectors:
  
 A1 = (  -6.2878208978,   6.2278110854,  -0.0694726034)
 A2 = (   0.0011956322,  12.4575380825,  -0.0007464135)
 A3 = (  -0.0697053522,  -0.0000445225,  -6.3737103126)
 
   4 primitive cells build up your supercell.
 

 Routine SETGRP: Setting up the symmetry group for a 
 triclinic supercell.


 Subroutine GETGRP returns: Found  1 space group operations
 (whereof  1 operations were pure point group operations)
 out of a pool of  2 trial point group operations.


The dynamic configuration has the point symmetry C_1 .


Analysis of structural, dynamic, and magnetic symmetry:
=====================================================================
 Subroutine PRICEL returns following result:
 
  LATTYP: Found a triclinic cell.
 ALAT       =     8.8502626515
 B/A-ratio  =     1.4075896561
 C/A-ratio  =     0.7202149489
 COS(alpha) =     0.0000518785
 COS(beta)  =     0.0156138721
 COS(gamma) =     0.7036188608
  
  Lattice vectors:
  
 A1 = (  -6.2878208978,   6.2278110854,  -0.0694726034)
 A2 = (   0.0011956322,  12.4575380825,  -0.0007464135)
 A3 = (  -0.0697053522,  -0.0000445225,  -6.3737103126)
 
   4 primitive cells build up your supercell.
 

 Routine SETGRP: Setting up the symmetry group for a 
 triclinic supercell.


 Subroutine GETGRP returns: Found  1 space group operations
 (whereof  1 operations were pure point group operations)
 out of a pool of  2 trial point group operations.


The (compounded) configuration has the point symmetry C_1 .


 Subroutine INISYM returns: Found  1 space group operations
 (whereof  1 operations are pure point group operations),
 and found     4 'primitive' translations

 
 
 KPOINTS: Automatic 3x3x3                         

Automatic generation of k-mesh.
Space group operators:
 irot       det(A)        alpha          n_x          n_y          n_z        tau_x        tau_y        tau_z
    1     1.000000     0.000000     1.000000     0.000000     0.000000     0.000000     0.000000     0.000000
 
 Subroutine IBZKPT returns following result:
 ===========================================
 
 Found     27 irreducible k-points:
 
 Following reciprocal coordinates:
            Coordinates               Weight
  0.000000  0.000000  0.000000      1.000000
  0.333333 -0.000000 -0.000000      1.000000
 -0.333333  0.000000  0.000000      1.000000
  0.000000  0.333333 -0.000000      1.000000
  0.333333  0.333333  0.000000      1.000000
 -0.333333  0.333333  0.000000      1.000000
 -0.000000 -0.333333  0.000000      1.000000
  0.333333 -0.333333 -0.000000      1.000000
 -0.333333 -0.333333 -0.000000      1.000000
  0.000000  0.000000  0.333333      1.000000
  0.333333  0.000000  0.333333      1.000000
 -0.333333  0.000000  0.333333      1.000000
  0.000000  0.333333  0.333333      1.000000
  0.333333  0.333333  0.333333      1.000000
 -0.333333  0.333333  0.333333      1.000000
  0.000000 -0.333333  0.333333      1.000000
  0.333333 -0.333333  0.333333      1.000000
 -0.333333 -0.333333  0.333333      1.000000
  0.000000  0.000000 -0.333333      1.000000
  0.333333 -0.000000 -0.333333      1.000000
 -0.333333 -0.000000 -0.333333      1.000000
 -0.000000  0.333333 -0.333333      1.000000
  0.333333  0.333333 -0.333333      1.000000
 -0.333333  0.333333 -0.333333      1.000000
 -0.000000 -0.333333 -0.333333      1.000000
  0.333333 -0.333333 -0.333333      1.000000
 -0.333333 -0.333333 -0.333333      1.000000
 
 Following cartesian coordinates:
            Coordinates               Weight
  0.000000  0.000000  0.000000      1.000000
  0.026507 -0.000003 -0.000290      1.000000
 -0.026507  0.000003  0.000290      1.000000
 -0.000004  0.026758 -0.000000      1.000000
  0.026503  0.026755 -0.000290      1.000000
 -0.026511  0.026760  0.000290      1.000000
  0.000004 -0.026758  0.000000      1.000000
  0.026511 -0.026760 -0.000290      1.000000
 -0.026503 -0.026755  0.000290      1.000000
 -0.000287  0.000002  0.026152      1.000000
  0.026220 -0.000001  0.025862      1.000000
 -0.026794  0.000004  0.026442      1.000000
 -0.000291  0.026759  0.026152      1.000000
  0.026215  0.026757  0.025862      1.000000
 -0.026798  0.026762  0.026442      1.000000
 -0.000283 -0.026756  0.026152      1.000000
  0.026224 -0.026759  0.025862      1.000000
 -0.026790 -0.026753  0.026442      1.000000
  0.000287 -0.000002 -0.026152      1.000000
  0.026794 -0.000004 -0.026442      1.000000
 -0.026220  0.000001 -0.025862      1.000000
  0.000283  0.026756 -0.026152      1.000000
  0.026790  0.026753 -0.026442      1.000000
 -0.026224  0.026759 -0.025862      1.000000
  0.000291 -0.026759 -0.026152      1.000000
  0.026798 -0.026762 -0.026442      1.000000
 -0.026215 -0.026757 -0.025862      1.000000
 


--------------------------------------------------------------------------------------------------------




 Dimension of arrays:
   k-points           NKPTS =     27   k-points in BZ     NKDIM =     27   number of bands    NBANDS=    600
   number of dos      NEDOS =    301   number of ions     NIONS =     96
   non local maximal  LDIM  =      6   non local SUM 2l+1 LMDIM =     18
   total plane-waves  NPLWV = ******
   max r-space proj   IRMAX =      1   max aug-charges    IRDMAX= 314103
   dimension x,y,z NGX =   112 NGY =  108 NGZ =  112
   dimension x,y,z NGXF=   224 NGYF=  216 NGZF=  224
   support grid    NGXF=   448 NGYF=  432 NGZF=  448
   ions per type =               8   8  48   8  24
 NGX,Y,Z   is equivalent  to a cutoff of  14.80, 14.41, 14.61 a.u.
 NGXF,Y,Z  is equivalent  to a cutoff of  29.61, 28.83, 29.21 a.u.


 I would recommend the setting:
   dimension x,y,z NGX =   109 NGY =  107 NGZ =  110
 SYSTEM =  MAPbI3-Cubic                            
 POSCAR =  C N H Pb I                              

 Startparameter for this run:
   NWRITE =      2    write-flag & timer
   PREC   = accura    normal or accurate (medium, high low for compatibility)
   ISTART =      0    job   : 0-new  1-cont  2-samecut
   ICHARG =      2    charge: 1-file 2-atom 10-const
   ISPIN  =      1    spin polarized calculation?
   LNONCOLLINEAR =      T non collinear calculations
   LSORBIT =      T    spin-orbit coupling
   INIWAV =      1    electr: 0-lowe 1-rand  2-diag
   LASPH  =      F    aspherical Exc in radial PAW
   METAGGA=      F    non-selfconsistent MetaGGA calc.

 Electronic Relaxation 1
   ENCUT  =  700.0 eV  51.45 Ry    7.17 a.u.  27.13 26.87 27.50*2*pi/ulx,y,z
   ENINI  =  700.0     initial cutoff
   ENAUG  =  644.9 eV  augmentation charge cutoff
   NELM   =     60;   NELMIN=  2; NELMDL= -5     # of ELM steps 
   EDIFF  = 0.1E-07   stopping-criterion for ELM
   LREAL  =      F    real-space projection
   NLSPLINE    = F    spline interpolate recip. space projectors
   LCOMPAT=      F    compatible to vasp.4.4
   GGA_COMPAT  = T    GGA compatible to vasp.4.4-vasp.4.6
   LMAXPAW     = -100 max onsite density
   LMAXMIX     =    2 max onsite mixed and CHGCAR
   VOSKOWN=      0    Vosko Wilk Nusair interpolation
   ROPT   =    0.00000   0.00000   0.00000   0.00000
   ROPT   =    0.00000
 Ionic relaxation
   EDIFFG = 0.1E-06   stopping-criterion for IOM
   NSW    =      0    number of steps for IOM
   NBLOCK =      1;   KBLOCK =      1    inner block; outer block 
   IBRION =     -1    ionic relax: 0-MD 1-quasi-New 2-CG
   NFREE  =      0    steps in history (QN), initial steepest desc. (CG)
   ISIF   =      2    stress and relaxation
   IWAVPR =     10    prediction:  0-non 1-charg 2-wave 3-comb
   ISYM   =      2    0-nonsym 1-usesym 2-fastsym
   LCORR  =      T    Harris-Foulkes like correction to forces

   POTIM  = 0.5000    time-step for ionic-motion
   TEIN   =    0.0    initial temperature
   TEBEG  =    0.0;   TEEND  =   0.0 temperature during run
   SMASS  =  -3.00    Nose mass-parameter (am)
   estimated Nose-frequenzy (Omega)   =  0.10E-29 period in steps =****** mass=  -0.362E-26a.u.
   SCALEE = 1.0000    scale energy and forces
   NPACO  =    256;   APACO  = 16.0  distance and # of slots for P.C.
   PSTRESS=    0.0 pullay stress

  Mass of Ions in am
   POMASS =  12.01 14.00  1.00207.20126.90
  Ionic Valenz
   ZVAL   =   4.00  5.00  1.00 14.00  7.00
  Atomic Wigner-Seitz radii
   RWIGS  =  -1.00 -1.00 -1.00 -1.00 -1.00
  virtual crystal weights 
   VCA    =   1.00  1.00  1.00  1.00  1.00
   NELECT =     400.0000    total number of electrons
   NUPDOWN=      -1.0000    fix difference up-down

 DOS related values:
   EMIN   =  10.00;   EMAX   =-10.00  energy-range for DOS
   EFERMI =   0.00
   ISMEAR =     0;   SIGMA  =   0.00  broadening in eV -4-tet -1-fermi 0-gaus

 Electronic relaxation 2 (details)
   IALGO  =     38    algorithm
   LDIAG  =      T    sub-space diagonalisation (order eigenvalues)
   LSUBROT=      F    optimize rotation matrix (better conditioning)
   TURBO    =      0    0=normal 1=particle mesh
   IRESTART =      0    0=no restart 2=restart with 2 vectors
   NREBOOT  =      0    no. of reboots
   NMIN     =      0    reboot dimension
   EREF     =   0.00    reference energy to select bands
   IMIX   =      4    mixing-type and parameters
     AMIX     =   0.40;   BMIX     =  1.00
     AMIX_MAG =   1.60;   BMIX_MAG =  1.00
     AMIN     =   0.10
     WC   =   100.;   INIMIX=   1;  MIXPRE=   1;  MAXMIX= -45

 Intra band minimization:
   WEIMIN = 0.0000     energy-eigenvalue tresh-hold
   EBREAK =  0.42E-11  absolut break condition
   DEPER  =   0.30     relativ break condition  

   TIME   =   0.40     timestep for ELM

  volume/ion in A,a.u.               =      20.80       140.38
  Fermi-wavevector in a.u.,A,eV,Ry     =   0.957863  1.810099 12.483376  0.917502
  Thomas-Fermi vector in A             =   2.086919
 
 Write flags
   LWAVE  =      F    write WAVECAR
   LCHARG =      F    write CHGCAR
   LVTOT  =      F    write LOCPOT, total local potential
   LVHAR  =      F    write LOCPOT, Hartree potential only
   LELF   =      F    write electronic localiz. function (ELF)
   LORBIT =      0    0 simple, 1 ext, 2 COOP (PROOUT)


 Dipole corrections
   LMONO  =      F    monopole corrections only (constant potential shift)
   LDIPOL =      F    correct potential (dipole corrections)
   IDIPOL =      0    1-x, 2-y, 3-z, 4-all directions 
   EPSILON=  1.0000000 bulk dielectric constant

 Core level calculations are selected ICORELEVEL =  1
 Exchange correlation treatment:
   GGA     =    PS    GGA type
   LEXCH   =    14    internal setting for exchange type
   VOSKOWN=      0    Vosko Wilk Nusair interpolation
   LHFCALC =     F    Hartree Fock is set to
   LHFONE  =     F    Hartree Fock one center treatment
   AEXX    =    0.0000 exact exchange contribution

 Linear response parameters
   LEPSILON=     F    determine dielectric tensor
   LRPA    =     F    only Hartree local field effects (RPA)
   LNABLA  =     F    use nabla operator in PAW spheres
   LVEL    =     F    velocity operator in full k-point grid
   LINTERFAST=   F  fast interpolation
   KINTER  =     0    interpolate to denser k-point grid
   CSHIFT  =0.1000    complex shift for real part using Kramers Kronig
   OMEGAMAX=  -1.0    maximum frequency
   DEG_THRESHOLD= 0.2000000E-02 threshold for treating states as degnerate
   RTIME   =    0.100 relaxation time in fs

 Orbital magnetization related:
   ORBITALMAG=     F  switch on orbital magnetization
   LCHIMAG   =     F  perturbation theory with respect to B field
   DQ        =  0.001000  dq finite difference perturbation B field



--------------------------------------------------------------------------------------------------------


 Static calculation
 charge density and potential will be updated during run
 non collinear spin polarized calculation
 Variant of blocked Davidson
 Davidson routine will perform the subspace rotation
 perform sub-space diagonalisation
    after iterative eigenvector-optimisation
 modified Broyden-mixing scheme, WC =      100.0
 initial mixing is a Kerker type mixing with AMIX =  0.4000 and BMIX =      1.0000
 Hartree-type preconditioning will be used
 using additional bands          400
 reciprocal scheme for non local part
 use partial core corrections
 calculate Harris-corrections to forces 
   (improved forces if not selfconsistent)
 use gradient corrections 
 use of overlap-Matrix (Vanderbilt PP)
 Gauss-broadening in eV      SIGMA  =   0.00


--------------------------------------------------------------------------------------------------------


  energy-cutoff  :      700.00
  volume of cell :     1996.98
      direct lattice vectors                 reciprocal lattice vectors
    12.576837428  0.001915912  0.138198793     0.079520802 -0.000007684 -0.000869670
     0.001195632 12.457538083 -0.000746413    -0.000012224  0.080272684 -0.000000427
     0.139410704  0.000089045 12.747420625    -0.000862111  0.000004784  0.078456671

  length of vectors
    12.577596840 12.457538162 12.748182927     0.079525558  0.080272685  0.078461408


 
 k-points in units of 2pi/SCALE and weight: Automatic 3x3x3                         
   0.00000000  0.00000000  0.00000000       0.037
   0.02650693 -0.00000256 -0.00028989       0.037
  -0.02650693  0.00000256  0.00028989       0.037
  -0.00000407  0.02675756 -0.00000014       0.037
   0.02650286  0.02675500 -0.00029003       0.037
  -0.02651101  0.02676012  0.00028975       0.037
   0.00000407 -0.02675756  0.00000014       0.037
   0.02651101 -0.02676012 -0.00028975       0.037
  -0.02650286 -0.02675500  0.00029003       0.037
  -0.00028737  0.00000159  0.02615222       0.037
   0.02621956 -0.00000097  0.02586233       0.037
  -0.02679430  0.00000416  0.02644211       0.037
  -0.00029144  0.02675916  0.02615208       0.037
   0.02621549  0.02675659  0.02586219       0.037
  -0.02679838  0.02676172  0.02644197       0.037
  -0.00028330 -0.02675597  0.02615237       0.037
   0.02622364 -0.02675853  0.02586248       0.037
  -0.02679023 -0.02675341  0.02644226       0.037
   0.00028737 -0.00000159 -0.02615222       0.037
   0.02679430 -0.00000416 -0.02644211       0.037
  -0.02621956  0.00000097 -0.02586233       0.037
   0.00028330  0.02675597 -0.02615237       0.037
   0.02679023  0.02675341 -0.02644226       0.037
  -0.02622364  0.02675853 -0.02586248       0.037
   0.00029144 -0.02675916 -0.02615208       0.037
   0.02679838 -0.02676172 -0.02644197       0.037
  -0.02621549 -0.02675659 -0.02586219       0.037
 
 k-points in reciprocal lattice and weights: Automatic 3x3x3                         
   0.00000000  0.00000000  0.00000000       0.037
   0.33333333 -0.00000000 -0.00000000       0.037
  -0.33333333  0.00000000  0.00000000       0.037
   0.00000000  0.33333333 -0.00000000       0.037
   0.33333333  0.33333333  0.00000000       0.037
  -0.33333333  0.33333333  0.00000000       0.037
  -0.00000000 -0.33333333  0.00000000       0.037
   0.33333333 -0.33333333 -0.00000000       0.037
  -0.33333333 -0.33333333 -0.00000000       0.037
   0.00000000  0.00000000  0.33333333       0.037
   0.33333333  0.00000000  0.33333333       0.037
  -0.33333333  0.00000000  0.33333333       0.037
   0.00000000  0.33333333  0.33333333       0.037
   0.33333333  0.33333333  0.33333333       0.037
  -0.33333333  0.33333333  0.33333333       0.037
   0.00000000 -0.33333333  0.33333333       0.037
   0.33333333 -0.33333333  0.33333333       0.037
  -0.33333333 -0.33333333  0.33333333       0.037
   0.00000000  0.00000000 -0.33333333       0.037
   0.33333333 -0.00000000 -0.33333333       0.037
  -0.33333333 -0.00000000 -0.33333333       0.037
  -0.00000000  0.33333333 -0.33333333       0.037
   0.33333333  0.33333333 -0.33333333       0.037
  -0.33333333  0.33333333 -0.33333333       0.037
  -0.00000000 -0.33333333 -0.33333333       0.037
   0.33333333 -0.33333333 -0.33333333       0.037
  -0.33333333 -0.33333333 -0.33333333       0.037
 
 position of ions in fractional coordinates (direct lattice) 
   0.20256974  0.24993152  0.22023148
   0.69141853  0.24988503  0.23759922
   0.19141853  0.74988503  0.23759922
   0.70256974  0.74993152  0.22023148
   0.20256974  0.24993152  0.72023148
   0.69141853  0.24988503  0.73759922
   0.19141853  0.74988503  0.73759922
   0.70256974  0.74993152  0.72023148
   0.30607157  0.25002128  0.27437549
   0.80300286  0.24998600  0.27339311
   0.30300286  0.74998600  0.27339311
   0.80607157  0.75002128  0.27437549
   0.30607157  0.25002128  0.77437549
   0.80300286  0.24998600  0.77339311
   0.30300286  0.74998600  0.77339311
   0.80607157  0.75002128  0.77437549
   0.21819455  0.24982036  0.13473233
   0.69195578  0.24982184  0.15104493
   0.19195578  0.74982184  0.15104493
   0.71819455  0.74982036  0.13473233
   0.21819455  0.24982036  0.63473233
   0.69195578  0.24982184  0.65104493
   0.19195578  0.74982184  0.65104493
   0.71819455  0.74982036  0.63473233
   0.15782275  0.32243892  0.24334826
   0.65085286  0.32226545  0.26768238
   0.15085286  0.82226545  0.26768238
   0.65782275  0.82243892  0.24334826
   0.15782275  0.32243892  0.74334826
   0.65085286  0.32226545  0.76768238
   0.15085286  0.82226545  0.76768238
   0.65782275  0.82243892  0.74334826
   0.15789238  0.17746276  0.24352476
   0.65099329  0.17748939  0.26777665
   0.15099329  0.67748939  0.26777665
   0.65789238  0.67746276  0.24352476
   0.15789238  0.17746276  0.74352476
   0.65099329  0.17748939  0.76777665
   0.15099329  0.67748939  0.76777665
   0.65789238  0.67746276  0.74352476
   0.35143436  0.31806023  0.25490210
   0.84483480  0.31768833  0.24661088
   0.34483480  0.81768833  0.24661088
   0.85143436  0.81806023  0.25490210
   0.35143436  0.31806023  0.75490210
   0.84483480  0.31768833  0.74661088
   0.34483480  0.81768833  0.74661088
   0.85143436  0.81806023  0.75490210
   0.35147070  0.18192693  0.25507939
   0.84493990  0.18228284  0.24670241
   0.34493990  0.68228284  0.24670241
   0.85147070  0.68192693  0.25507939
   0.35147070  0.18192693  0.75507939
   0.84493990  0.18228284  0.74670241
   0.34493990  0.68228284  0.74670241
   0.85147070  0.68192693  0.75507939
   0.29690871  0.25014172  0.35585765
   0.80943143  0.25004532  0.35536084
   0.30943143  0.75004532  0.35536084
   0.79690871  0.75014172  0.35585765
   0.29690871  0.25014172  0.85585765
   0.80943143  0.25004532  0.85536084
   0.30943143  0.75004532  0.85536084
   0.79690871  0.75014172  0.85585765
   0.47244666  0.50089899  0.48881024
   0.97243689  0.49908060  0.48881266
   0.47243689  0.99908060  0.48881266
   0.97244666  0.00089899  0.48881024
   0.47244666  0.50089899  0.98881024
   0.97243689  0.49908060  0.98881266
   0.47243689  0.99908060  0.98881266
   0.97244666  0.00089899  0.98881024
   0.45475722  0.50047516  0.23756986
   0.95473013  0.49950694  0.23757562
   0.45473013  0.99950694  0.23757562
   0.95475722  0.00047516  0.23756986
   0.45475722  0.50047516  0.73756986
   0.95473013  0.49950694  0.73757562
   0.45473013  0.99950694  0.73757562
   0.95475722  0.00047516  0.73756986
   0.46714946  0.24997555  0.00854093
   0.93212142  0.24998247  0.01512351
   0.43212142  0.74998247  0.01512351
   0.96714946  0.74997555  0.00854093
   0.46714946  0.24997555  0.50854093
   0.93212142  0.24998247  0.51512351
   0.43212142  0.74998247  0.51512351
   0.96714946  0.74997555  0.50854093
   0.21617567  0.47909328  0.46123970
   0.71616721  0.52090159  0.46123970
   0.21616721  0.02090159  0.46123970
   0.71617567  0.97909328  0.46123970
   0.21617567  0.47909328  0.96123970
   0.71616721  0.52090159  0.96123970
   0.21616721  0.02090159  0.96123970
   0.71617567  0.97909328  0.96123970
 
 position of ions in cartesian coordinates  (Angst):
   2.57868811  3.11393920  2.83519170
   8.72928106  3.11429808  3.12414394
   2.44146016  9.34210916  3.05467134
   8.86770464  9.34366620  2.90391789
   2.64839346  3.11398372  9.20890202
   8.79898641  3.11434260  9.49785426
   2.51116552  9.34215369  9.42838165
   8.93740999  9.34371072  9.27762821
   3.88796224  3.11526044  3.53969182
  10.13764929  3.11577297  3.59584438
   3.84982839  9.34358405  3.52637177
  10.17697877  9.34498744  3.60841801
   3.95766759  3.11530497  9.91340213
  10.20735464  3.11581749  9.96955469
   3.91953375  9.34362858  9.90008209
  10.24668412  9.34503196  9.98212832
   2.76327921  3.11257665  1.74745738
   8.72397138  3.11350421  2.02087419
   2.43615048  9.34131529  1.95140159
   9.05229574  9.34230365  1.81618357
   2.83298456  3.11262117  8.12116770
   8.79367673  3.11354873  8.39458450
   2.50585583  9.34135981  8.32511190
   9.12200109  9.34234817  8.18989389
   2.01922194  4.01711922  3.12363289
   8.22337375  4.01590492  3.50196639
   1.93555286 10.24371601  3.43249379
   8.30823847 10.24684621  3.19235908
   2.08892729  4.01716374  9.49734320
   8.29307911  4.01594945  9.87567670
   2.00525821 10.24376053  9.80620410
   8.37794382 10.24689074  9.56606939
   2.01994894  2.21107324  3.12600061
   8.22497988  2.21235193  3.50329565
   1.93715898  8.44016301  3.43382305
   8.30896547  8.44080024  3.19472680
   2.08965429  2.21111776  9.49971093
   8.29468523  2.21239645  9.87700596
   2.00686433  8.44020754  9.80753336
   8.37867082  8.44084476  9.56843712
   4.45584912  3.96294347  3.29767474
  10.66010996  3.95925510  3.26017061
   4.37228906 10.18706619  3.19069801
  10.74486565 10.19267047  3.36640093
   4.52555448  3.96298799  9.67138505
  10.72981531  3.95929963  9.63388092
   4.44199441 10.18711071  9.56440832
  10.81457101 10.19271499  9.74011124
   4.45616819  2.26705780  3.30004133
  10.66128265  2.27243624  3.26145298
   4.37346175  8.50024733  3.19198038
  10.74518472  8.49678480  3.36876752
   4.52587354  2.26710232  9.67375164
  10.73098800  2.27248076  9.63516330
   4.44316710  8.50029185  9.56569069
  10.81489007  8.49682932  9.74247783
   3.78408204  3.11675054  4.57711289
  10.22992763  3.11653158  4.64160988
   3.94210673  9.34434266  4.57213727
  10.07309857  9.34647754  4.64583908
   3.85378739  3.11679507 10.95082320
  10.29963298  3.11657610 11.01532019
   4.01181208  9.34438719 10.94584759
  10.14280392  9.34652206 11.01954939
   6.01062915  6.24091694  6.29598735
  12.29892309  6.21922220  6.36511765
   6.01110219 12.44703328  6.29564505
  12.29845005  0.01310586  6.36545996
   6.08033451  6.24096147 12.66969767
  12.36862844  6.21926672 12.73882797
   6.08080754 12.44707781 12.66935536
  12.36815540  0.01315038 12.73917027
   5.75312583  6.23558084  3.09087628
  12.04120339  6.22447701  3.16004611
   5.75338250 12.45228809  3.09057351
  12.04094672  0.00776975  3.16034888
   5.82283118  6.23562536  9.46458659
  12.11090874  6.22452153  9.53375643
   5.82308785 12.45233261  9.46428382
  12.11065208  0.00781427  9.53405920
   5.87675240  3.11497572  0.17324770
  11.72554680  3.11595335  0.32141718
   5.43772590  9.34376444  0.25194458
  12.16576893  9.34470272  0.24197389
   5.94645776  3.11502024  6.54695802
  11.79525215  3.11599787  6.69512749
   5.50743126  9.34380896  6.62565489
  12.23547429  9.34474724  6.61568421
   2.78368078  5.96877805  5.90913406
   9.07204314  6.49056459  5.97820116
   2.78302661  0.26083759  5.90947497
   9.07269731 12.19850504  5.97786025
   2.85338613  5.96882257 12.28284438
   9.14174849  6.49060911 12.35191148
   2.85273196  0.26088212 12.28318529
   9.14240266 12.19854957 12.35157057
 
 Euler angles ALPHA=     0.0000000  BETA=     0.0000000

 transformation matrix from SAXIS to cartesian coordinates
 ---------------------------------------------------------
     1.0000000 m_x     0.0000000 m_y     0.0000000 m_z
     0.0000000 m_x     1.0000000 m_y     0.0000000 m_z
     0.0000000 m_x     0.0000000 m_y     1.0000000 m_z

 transformation matrix from cartesian coordinates to SAXIS
 ---------------------------------------------------------
     1.0000000 m_x     0.0000000 m_y     0.0000000 m_z
     0.0000000 m_x     1.0000000 m_y     0.0000000 m_z
     0.0000000 m_x     0.0000000 m_y     1.0000000 m_z




--------------------------------------------------------------------------------------------------------


 k-point  1 :   0.0000 0.0000 0.0000  plane waves:  168014
 k-point  2 :   0.3333-0.0000-0.0000  plane waves:  168006
 k-point  3 :  -0.3333 0.0000 0.0000  plane waves:  168006
 k-point  4 :   0.0000 0.3333-0.0000  plane waves:  167990
 k-point  5 :   0.3333 0.3333 0.0000  plane waves:  168036
 k-point  6 :  -0.3333 0.3333 0.0000  plane waves:  168038
 k-point  7 :  -0.0000-0.3333 0.0000  plane waves:  167990
 k-point  8 :   0.3333-0.3333-0.0000  plane waves:  168038
 k-point  9 :  -0.3333-0.3333-0.0000  plane waves:  168036
 k-point 10 :   0.0000 0.0000 0.3333  plane waves:  167920
 k-point 11 :   0.3333 0.0000 0.3333  plane waves:  167874
 k-point 12 :  -0.3333 0.0000 0.3333  plane waves:  167964
 k-point 13 :   0.0000 0.3333 0.3333  plane waves:  167968
 k-point 14 :   0.3333 0.3333 0.3333  plane waves:  168024
 k-point 15 :  -0.3333 0.3333 0.3333  plane waves:  167940
 k-point 16 :   0.0000-0.3333 0.3333  plane waves:  167954
 k-point 17 :   0.3333-0.3333 0.3333  plane waves:  168026
 k-point 18 :  -0.3333-0.3333 0.3333  plane waves:  167946
 k-point 19 :   0.0000 0.0000-0.3333  plane waves:  167920
 k-point 20 :   0.3333-0.0000-0.3333  plane waves:  167964
 k-point 21 :  -0.3333-0.0000-0.3333  plane waves:  167874
 k-point 22 :  -0.0000 0.3333-0.3333  plane waves:  167954
 k-point 23 :   0.3333 0.3333-0.3333  plane waves:  167946
 k-point 24 :  -0.3333 0.3333-0.3333  plane waves:  168026
 k-point 25 :  -0.0000-0.3333-0.3333  plane waves:  167968
 k-point 26 :   0.3333-0.3333-0.3333  plane waves:  167940
 k-point 27 :  -0.3333-0.3333-0.3333  plane waves:  168024

 maximum and minimum number of plane-waves per node :      7122     6820

 maximum number of plane-waves:    168038
 maximum index in each direction: 
   IXMAX=   27   IYMAX=   27   IZMAX=   27
   IXMIN=  -27   IYMIN=  -27   IZMIN=  -27

 NGX is ok and might be reduce to 110
 WARNING: aliasing errors must be expected set NGY to 110 to avoid them
 NGZ is ok and might be reduce to 110
 aliasing errors are usually negligible using standard VASP settings
 and one can safely disregard these warnings

 parallel 3D FFT for wavefunctions:
    minimum data exchange during FFTs selected (reduces bandwidth)
 parallel 3D FFT for charge:
    minimum data exchange during FFTs selected (reduces bandwidth)


 total amount of memory used by VASP on root node   392927. kBytes
========================================================================

   base      :      30000. kBytes
   nonl-proj :      73667. kBytes
   fftplans  :      22714. kBytes
   grid      :      35610. kBytes
   one-center:        248. kBytes
   wavefun   :     230688. kBytes
 
     INWAV:  cpu time    0.0000: real time    0.0000
 Broyden mixing: mesh for mixing (old mesh)
   NGX = 55   NGY = 53   NGZ = 55
  (NGX  =224   NGY  =216   NGZ  =224)
  gives a total of 160325 points

 initial charge density was supplied:
 charge density of overlapping atoms calculated
 number of electron     400.0000000 magnetization      96.0000000     96.0000000     96.0000000
 keeping initial charge density in first step


--------------------------------------------------------------------------------------------------------


 Maximum index for augmentation-charges         5400 (set IRDMAX)


--------------------------------------------------------------------------------------------------------


 First call to EWALD:  gamma=   0.141
 Maximum number of real-space cells 3x 3x 3
 Maximum number of reciprocal cells 3x 3x 3

 FEWALD executed in parallel
    FEWALD:  cpu time    0.0040: real time    0.0040


----------------------------------------- Iteration    1(   1)  ---------------------------------------


    POTLOK:  cpu time    0.6080: real time    0.6087
    SETDIJ:  cpu time    2.1361: real time    2.1362
     EDDAV:  cpu time  241.6271: real time  241.7828
       DOS:  cpu time    0.0120: real time    0.0125
    --------------------------------------------
      LOOP:  cpu time  244.3833: real time  244.5659

 eigenvalue-minimisations  : 32544
 total energy-change (2. order) : 0.4228233E+04  (-0.1929878E+05)
 number of electron     400.0000000 magnetization      96.0000000     96.0000000     96.0000000
 augmentation part      400.0000000 magnetization      96.0000000     96.0000000     96.0000000

 Free energy of the ion-electron system (eV)
  ---------------------------------------------------
  alpha Z        PSCENC =       370.05370877
  Ewald energy   TEWEN  =    -15531.61002019
  -Hartree energ DENC   =     -8118.76338229
  -exchange      EXHF   =         0.00000000
  -V(xc)+E(xc)   XCENC  =       673.32974958
  PAW double counting   =     20172.90621935   -19413.33347658
  entropy T*S    EENTRO =        -0.00002428
  eigenvalues    EBANDS =      1326.64367946
  atomic energy  EATOM  =     24749.00668030
  Solvation  Ediel_sol  =         0.00000000
  ---------------------------------------------------
  free energy    TOTEN  =      4228.23313410 eV

  energy without entropy =     4228.23315839  energy(sigma->0) =     4228.23314625


--------------------------------------------------------------------------------------------------------




----------------------------------------- Iteration    1(   2)  ---------------------------------------


     EDDAV:  cpu time  257.9881: real time  258.1567
       DOS:  cpu time    0.0040: real time    0.0061
    --------------------------------------------
      LOOP:  cpu time  258.0041: real time  258.1858

 eigenvalue-minimisations  : 35648
 total energy-change (2. order) :-0.3384599E+04  (-0.3134126E+04)
 number of electron     400.0000000 magnetization      96.0000000     96.0000000     96.0000000
 augmentation part      400.0000000 magnetization      96.0000000     96.0000000     96.0000000

 Free energy of the ion-electron system (eV)
  ---------------------------------------------------
  alpha Z        PSCENC =       370.05370877
  Ewald energy   TEWEN  =    -15531.61002019
  -Hartree energ DENC   =     -8118.76338229
  -exchange      EXHF   =         0.00000000
  -V(xc)+E(xc)   XCENC  =       673.32974958
  PAW double counting   =     20172.90621935   -19413.33347658
  entropy T*S    EENTRO =        -0.00001451
  eigenvalues    EBANDS =     -2057.95547998
  atomic energy  EATOM  =     24749.00668030
  Solvation  Ediel_sol  =         0.00000000
  ---------------------------------------------------
  free energy    TOTEN  =       843.63398444 eV

  energy without entropy =      843.63399895  energy(sigma->0) =      843.63399169


--------------------------------------------------------------------------------------------------------




----------------------------------------- Iteration    1(   3)  ---------------------------------------


     EDDAV:  cpu time  303.7510: real time  303.9533
       DOS:  cpu time    0.0080: real time    0.0077
    --------------------------------------------
      LOOP:  cpu time  303.7630: real time  303.9906

 eigenvalue-minimisations  : 43896
 total energy-change (2. order) :-0.6089127E+03  (-0.5887073E+03)
 number of electron     400.0000000 magnetization      96.0000000     96.0000000     96.0000000
 augmentation part      400.0000000 magnetization      96.0000000     96.0000000     96.0000000

 Free energy of the ion-electron system (eV)
  ---------------------------------------------------
  alpha Z        PSCENC =       370.05370877
  Ewald energy   TEWEN  =    -15531.61002019
  -Hartree energ DENC   =     -8118.76338229
  -exchange      EXHF   =         0.00000000
  -V(xc)+E(xc)   XCENC  =       673.32974958
  PAW double counting   =     20172.90621935   -19413.33347658
  entropy T*S    EENTRO =        -0.00003396
  eigenvalues    EBANDS =     -2666.86811451
  atomic energy  EATOM  =     24749.00668030
  Solvation  Ediel_sol  =         0.00000000
  ---------------------------------------------------
  free energy    TOTEN  =       234.72133047 eV

  energy without entropy =      234.72136442  energy(sigma->0) =      234.72134745


--------------------------------------------------------------------------------------------------------




----------------------------------------- Iteration    1(   4)  ---------------------------------------


     EDDAV:  cpu time  304.4070: real time  304.6071
       DOS:  cpu time    0.0080: real time    0.0091
    --------------------------------------------
      LOOP:  cpu time  304.4230: real time  304.6690

 eigenvalue-minimisations  : 44096
 total energy-change (2. order) :-0.4581784E+02  (-0.4476677E+02)
 number of electron     400.0000000 magnetization      96.0000000     96.0000000     96.0000000
 augmentation part      400.0000000 magnetization      96.0000000     96.0000000     96.0000000

 Free energy of the ion-electron system (eV)
  ---------------------------------------------------
  alpha Z        PSCENC =       370.05370877
  Ewald energy   TEWEN  =    -15531.61002019
  -Hartree energ DENC   =     -8118.76338229
  -exchange      EXHF   =         0.00000000
  -V(xc)+E(xc)   XCENC  =       673.32974958
  PAW double counting   =     20172.90621935   -19413.33347658
  entropy T*S    EENTRO =        -0.00018487
  eigenvalues    EBANDS =     -2712.68580721
  atomic energy  EATOM  =     24749.00668030
  Solvation  Ediel_sol  =         0.00000000
  ---------------------------------------------------
  free energy    TOTEN  =       188.90348685 eV

  energy without entropy =      188.90367172  energy(sigma->0) =      188.90357928


--------------------------------------------------------------------------------------------------------




----------------------------------------- Iteration    1(   5)  ---------------------------------------


     EDDAV:  cpu time  337.1851: real time  337.4003
       DOS:  cpu time    0.0080: real time    0.0078
    CHARGE:  cpu time   11.6327: real time   11.6413
    MIXING:  cpu time    0.0120: real time    0.0148
    --------------------------------------------
      LOOP:  cpu time  348.8418: real time  349.1021

 eigenvalue-minimisations  : 50240
 total energy-change (2. order) :-0.2280275E+01  (-0.2268719E+01)
 number of electron     400.0000000 magnetization      67.1152181     67.1173947     67.1158183
 augmentation part        6.9857515 magnetization      63.4285352     63.4225562     63.4266245

 Broyden mixing:
  rms(total) = 0.97885E+01    rms(broyden)= 0.97883E+01
  rms(prec ) = 0.10289E+02
  weight for this iteration     100.00

 Free energy of the ion-electron system (eV)
  ---------------------------------------------------
  alpha Z        PSCENC =       370.05370877
  Ewald energy   TEWEN  =    -15531.61002019
  -Hartree energ DENC   =     -8118.76338229
  -exchange      EXHF   =         0.00000000
  -V(xc)+E(xc)   XCENC  =       673.32974958
  PAW double counting   =     20172.90621935   -19413.33347658
  entropy T*S    EENTRO =        -0.00014429
  eigenvalues    EBANDS =     -2714.96612272
  atomic energy  EATOM  =     24749.00668030
  Solvation  Ediel_sol  =         0.00000000
  ---------------------------------------------------
  free energy    TOTEN  =       186.62321191 eV

  energy without entropy =      186.62335621  energy(sigma->0) =      186.62328406


--------------------------------------------------------------------------------------------------------




----------------------------------------- Iteration    1(   6)  ---------------------------------------


    POTLOK:  cpu time    0.6040: real time    0.6032
    SETDIJ:  cpu time    2.1081: real time    2.1116
     EDDAV:  cpu time  266.4086: real time  266.5851
       DOS:  cpu time    0.0000: real time    0.0036
    CHARGE:  cpu time   11.7967: real time   11.8014
    MIXING:  cpu time    0.0160: real time    0.0151
    --------------------------------------------
      LOOP:  cpu time  280.9416: real time  281.1442

 eigenvalue-minimisations  : 37104
 total energy-change (2. order) :-0.1322442E+03  (-0.1521605E+03)
 number of electron     400.0000000 magnetization      50.2029258     50.2020365     50.2035022
 augmentation part        5.9600149 magnetization      51.0106316     51.0198453     51.0101649

 Broyden mixing:
  rms(total) = 0.48240E+01    rms(broyden)= 0.48239E+01
  rms(prec ) = 0.50089E+01
  weight for this iteration     100.00

 eigenvalues of (default mixing * dielectric matrix)
  average eigenvalue GAMMA=   0.7625
  0.7625

 Free energy of the ion-electron system (eV)
  ---------------------------------------------------
  alpha Z        PSCENC =       370.05370877
  Ewald energy   TEWEN  =    -15531.61002019
  -Hartree energ DENC   =     -8476.20854562
  -exchange      EXHF   =         0.00000000
  -V(xc)+E(xc)   XCENC  =       690.75408784
  PAW double counting   =     24191.98438146   -23455.06941674
  entropy T*S    EENTRO =        -0.00000000
  eigenvalues    EBANDS =     -2484.53184048
  atomic energy  EATOM  =     24749.00668030
  Solvation  Ediel_sol  =         0.00000000
  ---------------------------------------------------
  free energy    TOTEN  =        54.37903534 eV

  energy without entropy =       54.37903534  energy(sigma->0) =       54.37903534


--------------------------------------------------------------------------------------------------------




----------------------------------------- Iteration    1(   7)  ---------------------------------------


    POTLOK:  cpu time    0.6080: real time    0.6083
    SETDIJ:  cpu time    2.1401: real time    2.1399
     EDDAV:  cpu time  278.3534: real time  278.5374
       DOS:  cpu time    0.0080: real time    0.0085
    CHARGE:  cpu time   11.8167: real time   11.8225
    MIXING:  cpu time    0.0160: real time    0.0167
    --------------------------------------------
      LOOP:  cpu time  292.9423: real time  293.2624

 eigenvalue-minimisations  : 39280
 total energy-change (2. order) :-0.1489811E+03  (-0.1597137E+02)
 number of electron     400.0000000 magnetization      34.1529880     34.1488662     34.1561075
 augmentation part        5.6157356 magnetization      35.1653980     35.1740888     35.1569600

 Broyden mixing:
  rms(total) = 0.28239E+01    rms(broyden)= 0.28239E+01
  rms(prec ) = 0.29775E+01
  weight for this iteration     100.00

 eigenvalues of (default mixing * dielectric matrix)
  average eigenvalue GAMMA=   0.8434
  0.8434  0.8434

 Free energy of the ion-electron system (eV)
  ---------------------------------------------------
  alpha Z        PSCENC =       370.05370877
  Ewald energy   TEWEN  =    -15531.61002019
  -Hartree energ DENC   =     -8525.20174172
  -exchange      EXHF   =         0.00000000
  -V(xc)+E(xc)   XCENC  =       591.92746434
  PAW double counting   =     26645.58113690   -25908.74696707
  entropy T*S    EENTRO =        -0.00002148
  eigenvalues    EBANDS =     -2485.61235294
  atomic energy  EATOM  =     24749.00668030
  Solvation  Ediel_sol  =         0.00000000
  ---------------------------------------------------
  free energy    TOTEN  =       -94.60211311 eV

  energy without entropy =      -94.60209163  energy(sigma->0) =      -94.60210237


--------------------------------------------------------------------------------------------------------




----------------------------------------- Iteration    1(   8)  ---------------------------------------


    POTLOK:  cpu time    0.7320: real time    0.7344
    SETDIJ:  cpu time    2.1681: real time    2.1662
     EDDAV:  cpu time  268.4768: real time  268.6500
       DOS:  cpu time    0.0040: real time    0.0040
    CHARGE:  cpu time   11.8327: real time   11.8397
    MIXING:  cpu time    0.0160: real time    0.0158
    --------------------------------------------
      LOOP:  cpu time  283.2337: real time  283.4393

 eigenvalue-minimisations  : 37456
 total energy-change (2. order) :-0.1086053E+03  (-0.6490071E+01)
 number of electron     400.0000000 magnetization      15.7057527     15.6957470     15.7077370
 augmentation part        6.6733539 magnetization      16.8703124     16.8777771     16.8739646

 Broyden mixing:
  rms(total) = 0.18262E+01    rms(broyden)= 0.18262E+01
  rms(prec ) = 0.18809E+01
  weight for this iteration     100.00

 eigenvalues of (default mixing * dielectric matrix)
  average eigenvalue GAMMA=   1.0129
  1.4367  0.9706  0.6312

 Free energy of the ion-electron system (eV)
  ---------------------------------------------------
  alpha Z        PSCENC =       370.05370877
  Ewald energy   TEWEN  =    -15531.61002019
  -Hartree energ DENC   =     -8558.99910418
  -exchange      EXHF   =         0.00000000
  -V(xc)+E(xc)   XCENC  =       528.61454757
  PAW double counting   =     28655.07090969   -27920.30346085
  entropy T*S    EENTRO =        -0.00000000
  eigenvalues    EBANDS =     -2495.04068818
  atomic energy  EATOM  =     24749.00668030
  Solvation  Ediel_sol  =         0.00000000
  ---------------------------------------------------
  free energy    TOTEN  =      -203.20742707 eV

  energy without entropy =     -203.20742707  energy(sigma->0) =     -203.20742707


--------------------------------------------------------------------------------------------------------




----------------------------------------- Iteration    1(   9)  ---------------------------------------


    POTLOK:  cpu time    0.5960: real time    0.5965
    SETDIJ:  cpu time    2.1561: real time    2.1575
     EDDAV:  cpu time  263.5205: real time  263.6884
       DOS:  cpu time    0.0040: real time    0.0050
    CHARGE:  cpu time   11.8407: real time   11.8470
    MIXING:  cpu time    0.0160: real time    0.0161
    --------------------------------------------
      LOOP:  cpu time  278.1334: real time  278.4339

 eigenvalue-minimisations  : 36840
 total energy-change (2. order) :-0.1312587E+03  (-0.1220690E+02)
 number of electron     400.0000000 magnetization      10.2555791     10.2435798     10.2540064
 augmentation part        7.9300807 magnetization      11.0669859     11.0755915     11.0794721

 Broyden mixing:
  rms(total) = 0.90840E+00    rms(broyden)= 0.90839E+00
  rms(prec ) = 0.96026E+00
  weight for this iteration     100.00

 eigenvalues of (default mixing * dielectric matrix)
  average eigenvalue GAMMA=   1.0826
  1.8315  1.1039  0.6974  0.6974

 Free energy of the ion-electron system (eV)
  ---------------------------------------------------
  alpha Z        PSCENC =       370.05370877
  Ewald energy   TEWEN  =    -15531.61002019
  -Hartree energ DENC   =     -8589.93576068
  -exchange      EXHF   =         0.00000000
  -V(xc)+E(xc)   XCENC  =       463.24782192
  PAW double counting   =     30720.43199907   -29986.72368556
  entropy T*S    EENTRO =        -0.00000000
  eigenvalues    EBANDS =     -2528.93690124
  atomic energy  EATOM  =     24749.00668030
  Solvation  Ediel_sol  =         0.00000000
  ---------------------------------------------------
  free energy    TOTEN  =      -334.46615761 eV

  energy without entropy =     -334.46615761  energy(sigma->0) =     -334.46615761


--------------------------------------------------------------------------------------------------------




----------------------------------------- Iteration    1(  10)  ---------------------------------------


    POTLOK:  cpu time    0.6000: real time    0.6002
    SETDIJ:  cpu time    2.1481: real time    2.1485
     EDDAV:  cpu time  264.1125: real time  264.2866
       DOS:  cpu time    0.0040: real time    0.0041
    CHARGE:  cpu time   11.8007: real time   11.8084
    MIXING:  cpu time    0.0160: real time    0.0162
    --------------------------------------------
      LOOP:  cpu time  278.6854: real time  278.9105

 eigenvalue-minimisations  : 37280
 total energy-change (2. order) :-0.4818989E+02  (-0.4993057E+01)
 number of electron     400.0000000 magnetization       6.3728276      6.3636262      6.3698613
 augmentation part        8.2381710 magnetization       6.8954669      6.8942580      6.8985251

 Broyden mixing:
  rms(total) = 0.66571E+00    rms(broyden)= 0.66571E+00
  rms(prec ) = 0.74176E+00
  weight for this iteration     100.00

 eigenvalues of (default mixing * dielectric matrix)
  average eigenvalue GAMMA=   1.1362
  1.7015  1.7015  0.8317  0.8317  0.6144

 Free energy of the ion-electron system (eV)
  ---------------------------------------------------
  alpha Z        PSCENC =       370.05370877
  Ewald energy   TEWEN  =    -15531.61002019
  -Hartree energ DENC   =     -8576.19378517
  -exchange      EXHF   =         0.00000000
  -V(xc)+E(xc)   XCENC  =       442.63878314
  PAW double counting   =     31062.36721402   -30327.09106302
  entropy T*S    EENTRO =         0.00000000
  eigenvalues    EBANDS =     -2571.82756373
  atomic energy  EATOM  =     24749.00668030
  Solvation  Ediel_sol  =         0.00000000
  ---------------------------------------------------
  free energy    TOTEN  =      -382.65604589 eV

  energy without entropy =     -382.65604589  energy(sigma->0) =     -382.65604589


--------------------------------------------------------------------------------------------------------




----------------------------------------- Iteration    1(  11)  ---------------------------------------


    POTLOK:  cpu time    0.6120: real time    0.6122
    SETDIJ:  cpu time    2.1361: real time    2.1358
     EDDAV:  cpu time  268.6208: real time  268.7986
       DOS:  cpu time    0.0040: real time    0.0033
    CHARGE:  cpu time   11.8247: real time   11.8339
    MIXING:  cpu time    0.0200: real time    0.0163
    --------------------------------------------
      LOOP:  cpu time  283.2217: real time  283.4139

 eigenvalue-minimisations  : 38248
 total energy-change (2. order) :-0.2732265E+02  (-0.3703878E+01)
 number of electron     400.0000000 magnetization       3.1678038      3.1619608      3.1653303
 augmentation part        8.0992482 magnetization       3.3925779      3.3885632      3.3910793

 Broyden mixing:
  rms(total) = 0.38506E+00    rms(broyden)= 0.38505E+00
  rms(prec ) = 0.43954E+00
  weight for this iteration     100.00

 eigenvalues of (default mixing * dielectric matrix)
  average eigenvalue GAMMA=   1.2104
  2.0645  2.0645  0.9475  0.9475  0.6616  0.5769

 Free energy of the ion-electron system (eV)
  ---------------------------------------------------
  alpha Z        PSCENC =       370.05370877
  Ewald energy   TEWEN  =    -15531.61002019
  -Hartree energ DENC   =     -8523.78811968
  -exchange      EXHF   =         0.00000000
  -V(xc)+E(xc)   XCENC  =       428.78237531
  PAW double counting   =     30991.53811133   -30252.90691507
  entropy T*S    EENTRO =         0.00000000
  eigenvalues    EBANDS =     -2641.05451277
  atomic energy  EATOM  =     24749.00668030
  Solvation  Ediel_sol  =         0.00000000
  ---------------------------------------------------
  free energy    TOTEN  =      -409.97869200 eV

  energy without entropy =     -409.97869200  energy(sigma->0) =     -409.97869200


--------------------------------------------------------------------------------------------------------




----------------------------------------- Iteration    1(  12)  ---------------------------------------


    POTLOK:  cpu time    0.5960: real time    0.5952
    SETDIJ:  cpu time    2.1401: real time    2.1409
     EDDAV:  cpu time  277.5053: real time  277.6861
       DOS:  cpu time    0.0040: real time    0.0039
    CHARGE:  cpu time   11.8327: real time   11.8420
    MIXING:  cpu time    0.0160: real time    0.0165
    --------------------------------------------
      LOOP:  cpu time  292.0983: real time  292.3141

 eigenvalue-minimisations  : 39912
 total energy-change (2. order) :-0.1101062E+02  (-0.1655484E+01)
 number of electron     400.0000000 magnetization       2.4950539      2.4903277      2.4932373
 augmentation part        7.8955567 magnetization       2.5603842      2.5557032      2.5577544

 Broyden mixing:
  rms(total) = 0.25191E+00    rms(broyden)= 0.25190E+00
  rms(prec ) = 0.28992E+00
  weight for this iteration     100.00

 eigenvalues of (default mixing * dielectric matrix)
  average eigenvalue GAMMA=   1.1583
  2.0712  2.0712  0.9973  0.9973  0.6862  0.6862  0.5986

 Free energy of the ion-electron system (eV)
  ---------------------------------------------------
  alpha Z        PSCENC =       370.05370877
  Ewald energy   TEWEN  =    -15531.61002019
  -Hartree energ DENC   =     -8476.00066379
  -exchange      EXHF   =         0.00000000
  -V(xc)+E(xc)   XCENC  =       422.24593945
  PAW double counting   =     30832.66609586   -30091.28870710
  entropy T*S    EENTRO =         0.00000000
  eigenvalues    EBANDS =     -2696.06234452
  atomic energy  EATOM  =     24749.00668030
  Solvation  Ediel_sol  =         0.00000000
  ---------------------------------------------------
  free energy    TOTEN  =      -420.98931122 eV

  energy without entropy =     -420.98931122  energy(sigma->0) =     -420.98931122


--------------------------------------------------------------------------------------------------------




----------------------------------------- Iteration    1(  13)  ---------------------------------------


    POTLOK:  cpu time    0.5920: real time    0.5923
    SETDIJ:  cpu time    2.1401: real time    2.1384
     EDDAV:  cpu time  280.1135: real time  280.3010
       DOS:  cpu time    0.0080: real time    0.0049
    CHARGE:  cpu time   11.8087: real time   11.8187
    MIXING:  cpu time    0.0200: real time    0.0171
    --------------------------------------------
      LOOP:  cpu time  294.6824: real time  294.8864

 eigenvalue-minimisations  : 40352
 total energy-change (2. order) :-0.1842643E+01  (-0.2721957E+00)
 number of electron     400.0000000 magnetization       1.7442414      1.7414799      1.7432810
 augmentation part        7.9082212 magnetization       1.7948055      1.7927847      1.7941880

 Broyden mixing:
  rms(total) = 0.20771E+00    rms(broyden)= 0.20771E+00
  rms(prec ) = 0.24489E+00
  weight for this iteration     100.00

 eigenvalues of (default mixing * dielectric matrix)
  average eigenvalue GAMMA=   1.1811
  2.2012  2.2012  1.0617  1.0617  0.8650  0.8650  0.6226  0.5704

 Free energy of the ion-electron system (eV)
  ---------------------------------------------------
  alpha Z        PSCENC =       370.05370877
  Ewald energy   TEWEN  =    -15531.61002019
  -Hartree energ DENC   =     -8464.85510281
[...]
     0.0000000     0.0000000     0.0000000     0.0000000     0.0000000     0.0000000     0.0000000
     0.0000000     0.0000000     0.0000000     0.0000000     0.0000000     0.0000000     0.0000000
     0.0000000     0.0000000     0.0000000     0.0000000     0.0000000     0.0000000     0.0000000
     0.0000000     0.0000000     0.0000000     0.0000000     0.0000000     0.0000000     0.0000000

 Ion:   82  E_soc:     -0.2782226
 l=   1
     0.0000000    -0.0478138    -0.0482782
    -0.0478138     0.0000000    -0.0430379
    -0.0482782    -0.0430379     0.0000000
 l=   2
     0.0000000    -0.0000091     0.0000000    -0.0000030     0.0000222
    -0.0000091     0.0000000     0.0000045    -0.0000026     0.0000116
     0.0000000     0.0000045     0.0000000    -0.0000035     0.0000000
    -0.0000030    -0.0000026    -0.0000035     0.0000000    -0.0000015
     0.0000222     0.0000116     0.0000000    -0.0000015     0.0000000
 l=   3
     0.0000000     0.0000000     0.0000000     0.0000000     0.0000000     0.0000000     0.0000000
     0.0000000     0.0000000     0.0000000     0.0000000     0.0000000     0.0000000     0.0000000
     0.0000000     0.0000000     0.0000000     0.0000000     0.0000000     0.0000000     0.0000000
     0.0000000     0.0000000     0.0000000     0.0000000     0.0000000     0.0000000     0.0000000
     0.0000000     0.0000000     0.0000000     0.0000000     0.0000000     0.0000000     0.0000000
     0.0000000     0.0000000     0.0000000     0.0000000     0.0000000     0.0000000     0.0000000
     0.0000000     0.0000000     0.0000000     0.0000000     0.0000000     0.0000000     0.0000000

 Ion:   83  E_soc:     -0.2782226
 l=   1
     0.0000000    -0.0478138    -0.0482782
    -0.0478138     0.0000000    -0.0430379
    -0.0482782    -0.0430379     0.0000000
 l=   2
     0.0000000    -0.0000091     0.0000000    -0.0000030     0.0000222
    -0.0000091     0.0000000     0.0000045    -0.0000026     0.0000116
     0.0000000     0.0000045     0.0000000    -0.0000035     0.0000000
    -0.0000030    -0.0000026    -0.0000035     0.0000000    -0.0000015
     0.0000222     0.0000116     0.0000000    -0.0000015     0.0000000
 l=   3
     0.0000000     0.0000000     0.0000000     0.0000000     0.0000000     0.0000000     0.0000000
     0.0000000     0.0000000     0.0000000     0.0000000     0.0000000     0.0000000     0.0000000
     0.0000000     0.0000000     0.0000000     0.0000000     0.0000000     0.0000000     0.0000000
     0.0000000     0.0000000     0.0000000     0.0000000     0.0000000     0.0000000     0.0000000
     0.0000000     0.0000000     0.0000000     0.0000000     0.0000000     0.0000000     0.0000000
     0.0000000     0.0000000     0.0000000     0.0000000     0.0000000     0.0000000     0.0000000
     0.0000000     0.0000000     0.0000000     0.0000000     0.0000000     0.0000000     0.0000000

 Ion:   84  E_soc:     -0.2811787
 l=   1
     0.0000000    -0.0488464    -0.0488325
    -0.0488464     0.0000000    -0.0429355
    -0.0488325    -0.0429355     0.0000000
 l=   2
     0.0000000    -0.0000108     0.0000000    -0.0000030     0.0000248
    -0.0000108     0.0000000     0.0000061    -0.0000023     0.0000144
     0.0000000     0.0000061     0.0000000    -0.0000032     0.0000000
    -0.0000030    -0.0000023    -0.0000032     0.0000000    -0.0000010
     0.0000248     0.0000144     0.0000000    -0.0000010     0.0000000
 l=   3
     0.0000000     0.0000000     0.0000000     0.0000000     0.0000000     0.0000000     0.0000000
     0.0000000     0.0000000     0.0000000     0.0000000     0.0000000     0.0000000     0.0000000
     0.0000000     0.0000000     0.0000000     0.0000000     0.0000000     0.0000000     0.0000000
     0.0000000     0.0000000     0.0000000     0.0000000     0.0000000     0.0000000     0.0000000
     0.0000000     0.0000000     0.0000000     0.0000000     0.0000000     0.0000000     0.0000000
     0.0000000     0.0000000     0.0000000     0.0000000     0.0000000     0.0000000     0.0000000
     0.0000000     0.0000000     0.0000000     0.0000000     0.0000000     0.0000000     0.0000000

 Ion:   85  E_soc:     -0.2811787
 l=   1
     0.0000000    -0.0488464    -0.0488325
    -0.0488464     0.0000000    -0.0429355
    -0.0488325    -0.0429355     0.0000000
 l=   2
     0.0000000    -0.0000108     0.0000000    -0.0000030     0.0000248
    -0.0000108     0.0000000     0.0000061    -0.0000023     0.0000144
     0.0000000     0.0000061     0.0000000    -0.0000032     0.0000000
    -0.0000030    -0.0000023    -0.0000032     0.0000000    -0.0000010
     0.0000248     0.0000144     0.0000000    -0.0000010     0.0000000
 l=   3
     0.0000000     0.0000000     0.0000000     0.0000000     0.0000000     0.0000000     0.0000000
     0.0000000     0.0000000     0.0000000     0.0000000     0.0000000     0.0000000     0.0000000
     0.0000000     0.0000000     0.0000000     0.0000000     0.0000000     0.0000000     0.0000000
     0.0000000     0.0000000     0.0000000     0.0000000     0.0000000     0.0000000     0.0000000
     0.0000000     0.0000000     0.0000000     0.0000000     0.0000000     0.0000000     0.0000000
     0.0000000     0.0000000     0.0000000     0.0000000     0.0000000     0.0000000     0.0000000
     0.0000000     0.0000000     0.0000000     0.0000000     0.0000000     0.0000000     0.0000000

 Ion:   86  E_soc:     -0.2782226
 l=   1
     0.0000000    -0.0478138    -0.0482782
    -0.0478138     0.0000000    -0.0430379
    -0.0482782    -0.0430379     0.0000000
 l=   2
     0.0000000    -0.0000091     0.0000000    -0.0000030     0.0000222
    -0.0000091     0.0000000     0.0000045    -0.0000026     0.0000116
     0.0000000     0.0000045     0.0000000    -0.0000035     0.0000000
    -0.0000030    -0.0000026    -0.0000035     0.0000000    -0.0000015
     0.0000222     0.0000116     0.0000000    -0.0000015     0.0000000
 l=   3
     0.0000000     0.0000000     0.0000000     0.0000000     0.0000000     0.0000000     0.0000000
     0.0000000     0.0000000     0.0000000     0.0000000     0.0000000     0.0000000     0.0000000
     0.0000000     0.0000000     0.0000000     0.0000000     0.0000000     0.0000000     0.0000000
     0.0000000     0.0000000     0.0000000     0.0000000     0.0000000     0.0000000     0.0000000
     0.0000000     0.0000000     0.0000000     0.0000000     0.0000000     0.0000000     0.0000000
     0.0000000     0.0000000     0.0000000     0.0000000     0.0000000     0.0000000     0.0000000
     0.0000000     0.0000000     0.0000000     0.0000000     0.0000000     0.0000000     0.0000000

 Ion:   87  E_soc:     -0.2782226
 l=   1
     0.0000000    -0.0478138    -0.0482782
    -0.0478138     0.0000000    -0.0430379
    -0.0482782    -0.0430379     0.0000000
 l=   2
     0.0000000    -0.0000091     0.0000000    -0.0000030     0.0000222
    -0.0000091     0.0000000     0.0000045    -0.0000026     0.0000116
     0.0000000     0.0000045     0.0000000    -0.0000035     0.0000000
    -0.0000030    -0.0000026    -0.0000035     0.0000000    -0.0000015
     0.0000222     0.0000116     0.0000000    -0.0000015     0.0000000
 l=   3
     0.0000000     0.0000000     0.0000000     0.0000000     0.0000000     0.0000000     0.0000000
     0.0000000     0.0000000     0.0000000     0.0000000     0.0000000     0.0000000     0.0000000
     0.0000000     0.0000000     0.0000000     0.0000000     0.0000000     0.0000000     0.0000000
     0.0000000     0.0000000     0.0000000     0.0000000     0.0000000     0.0000000     0.0000000
     0.0000000     0.0000000     0.0000000     0.0000000     0.0000000     0.0000000     0.0000000
     0.0000000     0.0000000     0.0000000     0.0000000     0.0000000     0.0000000     0.0000000
     0.0000000     0.0000000     0.0000000     0.0000000     0.0000000     0.0000000     0.0000000

 Ion:   88  E_soc:     -0.2811787
 l=   1
     0.0000000    -0.0488464    -0.0488325
    -0.0488464     0.0000000    -0.0429355
    -0.0488325    -0.0429355     0.0000000
 l=   2
     0.0000000    -0.0000108     0.0000000    -0.0000030     0.0000248
    -0.0000108     0.0000000     0.0000061    -0.0000023     0.0000144
     0.0000000     0.0000061     0.0000000    -0.0000032     0.0000000
    -0.0000030    -0.0000023    -0.0000032     0.0000000    -0.0000010
     0.0000248     0.0000144     0.0000000    -0.0000010     0.0000000
 l=   3
     0.0000000     0.0000000     0.0000000     0.0000000     0.0000000     0.0000000     0.0000000
     0.0000000     0.0000000     0.0000000     0.0000000     0.0000000     0.0000000     0.0000000
     0.0000000     0.0000000     0.0000000     0.0000000     0.0000000     0.0000000     0.0000000
     0.0000000     0.0000000     0.0000000     0.0000000     0.0000000     0.0000000     0.0000000
     0.0000000     0.0000000     0.0000000     0.0000000     0.0000000     0.0000000     0.0000000
     0.0000000     0.0000000     0.0000000     0.0000000     0.0000000     0.0000000     0.0000000
     0.0000000     0.0000000     0.0000000     0.0000000     0.0000000     0.0000000     0.0000000

 Ion:   89  E_soc:     -0.2858707
 l=   1
     0.0000000    -0.0430124    -0.0495168
    -0.0430124     0.0000000    -0.0504275
    -0.0495168    -0.0504275     0.0000000
 l=   2
     0.0000000    -0.0000021     0.0000000    -0.0000081     0.0000196
    -0.0000021     0.0000000    -0.0000023    -0.0000024    -0.0000015
     0.0000000    -0.0000023     0.0000000     0.0000051     0.0000000
    -0.0000081    -0.0000024     0.0000051     0.0000000     0.0000129
     0.0000196    -0.0000015     0.0000000     0.0000129     0.0000000
 l=   3
     0.0000000     0.0000000     0.0000000     0.0000000     0.0000000     0.0000000     0.0000000
     0.0000000     0.0000000     0.0000000     0.0000000     0.0000000     0.0000000     0.0000000
     0.0000000     0.0000000     0.0000000     0.0000000     0.0000000     0.0000000     0.0000000
     0.0000000     0.0000000     0.0000000     0.0000000     0.0000000     0.0000000     0.0000000
     0.0000000     0.0000000     0.0000000     0.0000000     0.0000000     0.0000000     0.0000000
     0.0000000     0.0000000     0.0000000     0.0000000     0.0000000     0.0000000     0.0000000
     0.0000000     0.0000000     0.0000000     0.0000000     0.0000000     0.0000000     0.0000000

 Ion:   90  E_soc:     -0.2858801
 l=   1
     0.0000000    -0.0430125    -0.0495198
    -0.0430125     0.0000000    -0.0504291
    -0.0495198    -0.0504291     0.0000000
 l=   2
     0.0000000    -0.0000021     0.0000000    -0.0000081     0.0000197
    -0.0000021     0.0000000    -0.0000023    -0.0000024    -0.0000015
     0.0000000    -0.0000023     0.0000000     0.0000051     0.0000000
    -0.0000081    -0.0000024     0.0000051     0.0000000     0.0000129
     0.0000197    -0.0000015     0.0000000     0.0000129     0.0000000
 l=   3
     0.0000000     0.0000000     0.0000000     0.0000000     0.0000000     0.0000000     0.0000000
     0.0000000     0.0000000     0.0000000     0.0000000     0.0000000     0.0000000     0.0000000
     0.0000000     0.0000000     0.0000000     0.0000000     0.0000000     0.0000000     0.0000000
     0.0000000     0.0000000     0.0000000     0.0000000     0.0000000     0.0000000     0.0000000
     0.0000000     0.0000000     0.0000000     0.0000000     0.0000000     0.0000000     0.0000000
     0.0000000     0.0000000     0.0000000     0.0000000     0.0000000     0.0000000     0.0000000
     0.0000000     0.0000000     0.0000000     0.0000000     0.0000000     0.0000000     0.0000000

 Ion:   91  E_soc:     -0.2858801
 l=   1
     0.0000000    -0.0430125    -0.0495198
    -0.0430125     0.0000000    -0.0504291
    -0.0495198    -0.0504291     0.0000000
 l=   2
     0.0000000    -0.0000021     0.0000000    -0.0000081     0.0000197
    -0.0000021     0.0000000    -0.0000023    -0.0000024    -0.0000015
     0.0000000    -0.0000023     0.0000000     0.0000051     0.0000000
    -0.0000081    -0.0000024     0.0000051     0.0000000     0.0000129
     0.0000197    -0.0000015     0.0000000     0.0000129     0.0000000
 l=   3
     0.0000000     0.0000000     0.0000000     0.0000000     0.0000000     0.0000000     0.0000000
     0.0000000     0.0000000     0.0000000     0.0000000     0.0000000     0.0000000     0.0000000
     0.0000000     0.0000000     0.0000000     0.0000000     0.0000000     0.0000000     0.0000000
     0.0000000     0.0000000     0.0000000     0.0000000     0.0000000     0.0000000     0.0000000
     0.0000000     0.0000000     0.0000000     0.0000000     0.0000000     0.0000000     0.0000000
     0.0000000     0.0000000     0.0000000     0.0000000     0.0000000     0.0000000     0.0000000
     0.0000000     0.0000000     0.0000000     0.0000000     0.0000000     0.0000000     0.0000000

 Ion:   92  E_soc:     -0.2858707
 l=   1
     0.0000000    -0.0430124    -0.0495168
    -0.0430124     0.0000000    -0.0504275
    -0.0495168    -0.0504275     0.0000000
 l=   2
     0.0000000    -0.0000021     0.0000000    -0.0000081     0.0000196
    -0.0000021     0.0000000    -0.0000023    -0.0000024    -0.0000015
     0.0000000    -0.0000023     0.0000000     0.0000051     0.0000000
    -0.0000081    -0.0000024     0.0000051     0.0000000     0.0000129
     0.0000196    -0.0000015     0.0000000     0.0000129     0.0000000
 l=   3
     0.0000000     0.0000000     0.0000000     0.0000000     0.0000000     0.0000000     0.0000000
     0.0000000     0.0000000     0.0000000     0.0000000     0.0000000     0.0000000     0.0000000
     0.0000000     0.0000000     0.0000000     0.0000000     0.0000000     0.0000000     0.0000000
     0.0000000     0.0000000     0.0000000     0.0000000     0.0000000     0.0000000     0.0000000
     0.0000000     0.0000000     0.0000000     0.0000000     0.0000000     0.0000000     0.0000000
     0.0000000     0.0000000     0.0000000     0.0000000     0.0000000     0.0000000     0.0000000
     0.0000000     0.0000000     0.0000000     0.0000000     0.0000000     0.0000000     0.0000000

 Ion:   93  E_soc:     -0.2858707
 l=   1
     0.0000000    -0.0430124    -0.0495168
    -0.0430124     0.0000000    -0.0504275
    -0.0495168    -0.0504275     0.0000000
 l=   2
     0.0000000    -0.0000021     0.0000000    -0.0000081     0.0000196
    -0.0000021     0.0000000    -0.0000023    -0.0000024    -0.0000015
     0.0000000    -0.0000023     0.0000000     0.0000051     0.0000000
    -0.0000081    -0.0000024     0.0000051     0.0000000     0.0000129
     0.0000196    -0.0000015     0.0000000     0.0000129     0.0000000
 l=   3
     0.0000000     0.0000000     0.0000000     0.0000000     0.0000000     0.0000000     0.0000000
     0.0000000     0.0000000     0.0000000     0.0000000     0.0000000     0.0000000     0.0000000
     0.0000000     0.0000000     0.0000000     0.0000000     0.0000000     0.0000000     0.0000000
     0.0000000     0.0000000     0.0000000     0.0000000     0.0000000     0.0000000     0.0000000
     0.0000000     0.0000000     0.0000000     0.0000000     0.0000000     0.0000000     0.0000000
     0.0000000     0.0000000     0.0000000     0.0000000     0.0000000     0.0000000     0.0000000
     0.0000000     0.0000000     0.0000000     0.0000000     0.0000000     0.0000000     0.0000000

 Ion:   94  E_soc:     -0.2858801
 l=   1
     0.0000000    -0.0430125    -0.0495198
    -0.0430125     0.0000000    -0.0504291
    -0.0495198    -0.0504291     0.0000000
 l=   2
     0.0000000    -0.0000021     0.0000000    -0.0000081     0.0000197
    -0.0000021     0.0000000    -0.0000023    -0.0000024    -0.0000015
     0.0000000    -0.0000023     0.0000000     0.0000051     0.0000000
    -0.0000081    -0.0000024     0.0000051     0.0000000     0.0000129
     0.0000197    -0.0000015     0.0000000     0.0000129     0.0000000
 l=   3
     0.0000000     0.0000000     0.0000000     0.0000000     0.0000000     0.0000000     0.0000000
     0.0000000     0.0000000     0.0000000     0.0000000     0.0000000     0.0000000     0.0000000
     0.0000000     0.0000000     0.0000000     0.0000000     0.0000000     0.0000000     0.0000000
     0.0000000     0.0000000     0.0000000     0.0000000     0.0000000     0.0000000     0.0000000
     0.0000000     0.0000000     0.0000000     0.0000000     0.0000000     0.0000000     0.0000000
     0.0000000     0.0000000     0.0000000     0.0000000     0.0000000     0.0000000     0.0000000
     0.0000000     0.0000000     0.0000000     0.0000000     0.0000000     0.0000000     0.0000000

 Ion:   95  E_soc:     -0.2858801
 l=   1
     0.0000000    -0.0430125    -0.0495198
    -0.0430125     0.0000000    -0.0504291
    -0.0495198    -0.0504291     0.0000000
 l=   2
     0.0000000    -0.0000021     0.0000000    -0.0000081     0.0000197
    -0.0000021     0.0000000    -0.0000023    -0.0000024    -0.0000015
     0.0000000    -0.0000023     0.0000000     0.0000051     0.0000000
    -0.0000081    -0.0000024     0.0000051     0.0000000     0.0000129
     0.0000197    -0.0000015     0.0000000     0.0000129     0.0000000
 l=   3
     0.0000000     0.0000000     0.0000000     0.0000000     0.0000000     0.0000000     0.0000000
     0.0000000     0.0000000     0.0000000     0.0000000     0.0000000     0.0000000     0.0000000
     0.0000000     0.0000000     0.0000000     0.0000000     0.0000000     0.0000000     0.0000000
     0.0000000     0.0000000     0.0000000     0.0000000     0.0000000     0.0000000     0.0000000
     0.0000000     0.0000000     0.0000000     0.0000000     0.0000000     0.0000000     0.0000000
     0.0000000     0.0000000     0.0000000     0.0000000     0.0000000     0.0000000     0.0000000
     0.0000000     0.0000000     0.0000000     0.0000000     0.0000000     0.0000000     0.0000000

 Ion:   96  E_soc:     -0.2858707
 l=   1
     0.0000000    -0.0430124    -0.0495168
    -0.0430124     0.0000000    -0.0504275
    -0.0495168    -0.0504275     0.0000000
 l=   2
     0.0000000    -0.0000021     0.0000000    -0.0000081     0.0000196
    -0.0000021     0.0000000    -0.0000023    -0.0000024    -0.0000015
     0.0000000    -0.0000023     0.0000000     0.0000051     0.0000000
    -0.0000081    -0.0000024     0.0000051     0.0000000     0.0000129
     0.0000196    -0.0000015     0.0000000     0.0000129     0.0000000
 l=   3
     0.0000000     0.0000000     0.0000000     0.0000000     0.0000000     0.0000000     0.0000000
     0.0000000     0.0000000     0.0000000     0.0000000     0.0000000     0.0000000     0.0000000
     0.0000000     0.0000000     0.0000000     0.0000000     0.0000000     0.0000000     0.0000000
     0.0000000     0.0000000     0.0000000     0.0000000     0.0000000     0.0000000     0.0000000
     0.0000000     0.0000000     0.0000000     0.0000000     0.0000000     0.0000000     0.0000000
     0.0000000     0.0000000     0.0000000     0.0000000     0.0000000     0.0000000     0.0000000
     0.0000000     0.0000000     0.0000000     0.0000000     0.0000000     0.0000000     0.0000000

 total amount of memory used by VASP on root node   392927. kBytes
========================================================================

   base      :      30000. kBytes
   nonl-proj :      73667. kBytes
   fftplans  :      22714. kBytes
   grid      :      35610. kBytes
   one-center:        248. kBytes
   wavefun   :     230688. kBytes
 
  
  
 General timing and accounting informations for this job:
 ========================================================
  
                  Total CPU time used (sec):     9175.697
                            User time (sec):     9160.436
                          System time (sec):       15.261
                         Elapsed time (sec):     9188.076
  
                   Maximum memory used (kb):      413148.
                   Average memory used (kb):           0.
  
                          Minor page faults:       622677
                          Major page faults:            0
                 Voluntary context switches:        17186
