 running on  192 total cores
 distrk:  each k-point on  192 cores,    1 groups
 distr:  one band on   24 cores,    8 groups
 using from now: INCAR     
 vasp.5.4.1 24Jun15 (build Nov 25 2015 16:39:35) complex                        
  
 POSCAR found type information on POSCAR  C  N  H  Pb I 
 POSCAR found :  5 types and      96 ions
 scaLAPACK will be used

 ----------------------------------------------------------------------------- 
|                                                                             |
|  ADVICE TO THIS USER RUNNING 'VASP/VAMP'   (HEAR YOUR MASTER'S VOICE ...):  |
|                                                                             |
|      You have a (more or less) 'large supercell' and for larger cells       |
|      it might be more efficient to use real space projection opertators     |
|      So try LREAL= Auto  in the INCAR   file.                               |
|      Mind: At the moment your POTCAR file does not contain real space       |
|       projectors, and has to be modified,  BUT if you                       |
|      want to do an extremely  accurate calculation you might also keep the  |
|      reciprocal projection scheme          (i.e. LREAL=.FALSE.)             |
|                                                                             |
 ----------------------------------------------------------------------------- 


 ----------------------------------------------------------------------------- 
|                                                                             |
|  ADVICE TO THIS USER RUNNING 'VASP/VAMP'   (HEAR YOUR MASTER'S VOICE ...):  |
|                                                                             |
|      You enforced a specific xc-type in the INCAR file,                     |
|      a different type was found on the POTCAR file                          |
|          I HOPE YOU KNOW, WHAT YOU ARE  DOING                               |
|                                                                             |
 ----------------------------------------------------------------------------- 

 LDA part: xc-table for Pade appr. of Perdew
 POSCAR, INCAR and KPOINTS ok, starting setup
 WARNING: small aliasing (wrap around) errors must be expected
 FFT: planning ...
 WAVECAR not read
 entering main loop
       N       E                     dE             d eps       ncg     rms          rms(c)
DAV:   1     0.422823313410E+04    0.42282E+04   -0.19299E+05 32544   0.146E+03
DAV:   2     0.843633984439E+03   -0.33846E+04   -0.31341E+04 35648   0.322E+02
DAV:   3     0.234721330466E+03   -0.60891E+03   -0.58871E+03 43896   0.157E+02
DAV:   4     0.188903486848E+03   -0.45818E+02   -0.44767E+02 44096   0.438E+01
DAV:   5     0.186623211914E+03   -0.22803E+01   -0.22687E+01 50240   0.100E+01    0.979E+01
DAV:   6     0.543790353416E+02   -0.13224E+03   -0.15216E+03 37104   0.503E+01    0.482E+01
DAV:   7    -0.946021131061E+02   -0.14898E+03   -0.15971E+02 39280   0.216E+01    0.282E+01
DAV:   8    -0.203207427068E+03   -0.10861E+03   -0.64901E+01 37456   0.130E+01    0.183E+01
DAV:   9    -0.334466157613E+03   -0.13126E+03   -0.12207E+02 36840   0.162E+01    0.908E+00
DAV:  10    -0.382656045893E+03   -0.48190E+02   -0.49931E+01 37280   0.103E+01    0.666E+00
DAV:  11    -0.409978691999E+03   -0.27323E+02   -0.37039E+01 38248   0.808E+00    0.385E+00
DAV:  12    -0.420989311225E+03   -0.11011E+02   -0.16555E+01 39912   0.546E+00    0.252E+00
DAV:  13    -0.422831953732E+03   -0.18426E+01   -0.27220E+00 40352   0.262E+00    0.208E+00
DAV:  14    -0.423449460695E+03   -0.61751E+00   -0.84566E-01 38968   0.133E+00    0.118E+00
DAV:  15    -0.423529260171E+03   -0.79799E-01   -0.20876E-01 41432   0.736E-01    0.651E-01
DAV:  16    -0.423537868102E+03   -0.86079E-02   -0.32432E-02 41856   0.334E-01    0.412E-01
DAV:  17    -0.423541170245E+03   -0.33021E-02   -0.10043E-02 38960   0.169E-01    0.231E-01
DAV:  18    -0.423542985160E+03   -0.18149E-02   -0.26809E-03 39936   0.922E-02    0.817E-02
DAV:  19    -0.423543455629E+03   -0.47047E-03   -0.68280E-04 40392   0.523E-02    0.462E-02
DAV:  20    -0.423543701741E+03   -0.24611E-03   -0.22757E-04 37984   0.280E-02    0.258E-02
DAV:  21    -0.423543852972E+03   -0.15123E-03   -0.14603E-04 37256   0.197E-02    0.154E-02
DAV:  22    -0.423543865914E+03   -0.12942E-04   -0.18745E-05 43592   0.831E-03    0.982E-03
DAV:  23    -0.423543867861E+03   -0.19476E-05   -0.78153E-06 37488   0.415E-03    0.410E-03
DAV:  24    -0.423543871116E+03   -0.32544E-05   -0.32083E-06 36616   0.318E-03    0.194E-03
DAV:  25    -0.423543871278E+03   -0.16239E-06   -0.68702E-07 40000   0.142E-03    0.116E-03
DAV:  26    -0.423543871258E+03    0.20274E-07   -0.11784E-07 42312   0.668E-04    0.906E-04
DAV:  27    -0.423543871203E+03    0.54559E-07   -0.27054E-08 35648   0.331E-04    0.353E-04
DAV:  28    -0.423543871121E+03    0.82502E-07   -0.23364E-08 31184   0.282E-04    0.231E-04
DAV:  29    -0.423543871110E+03    0.10092E-07   -0.35456E-09 28888   0.147E-04    0.158E-04
DAV:  30    -0.423543871121E+03   -0.10499E-07   -0.16742E-09 25592   0.148E-04    0.608E-05
DAV:  31    -0.423543871127E+03   -0.61809E-08   -0.81931E-10 23872   0.972E-05
   1 F= -.42354387E+03 E0= -.42354387E+03  d E =0.000000E+00  mag=     0.0000     0.0000     0.0000
Application 22254258 resources: utime ~1759299s, stime ~2774s, Rss ~417184, inblocks ~2748261, outblocks ~4030527
