  96  96   0   0
  0.2080188E+02  0.1257760E-08  0.1245754E-08  0.1274818E-08  0.5000000E-15
  1.000000000000000E-004
  CAR 
 MAPbI3-Cubic                            
      8.86476008    -19.53257773  301      1.41045890      1.00000000
    -19.533  0.0000E+00  0.0000E+00
    -19.438  0.0000E+00  0.0000E+00
    -19.343  0.0000E+00  0.0000E+00
    -19.249  0.0000E+00  0.0000E+00
    -19.154  0.0000E+00  0.0000E+00
    -19.059  0.0000E+00  0.0000E+00
    -18.965  0.0000E+00  0.0000E+00
    -18.870  0.0000E+00  0.0000E+00
    -18.775  0.0000E+00  0.0000E+00
    -18.681  0.0000E+00  0.0000E+00
    -18.586  0.0000E+00  0.0000E+00
    -18.491  0.0000E+00  0.0000E+00
    -18.397  0.0000E+00  0.0000E+00
    -18.302  0.0000E+00  0.0000E+00
    -18.207  0.0000E+00  0.1600E+02
    -18.113  0.0000E+00  0.1600E+02
    -18.018  0.0000E+00  0.1600E+02
    -17.923  0.0000E+00  0.1600E+02
    -17.829  0.0000E+00  0.1600E+02
    -17.734  0.0000E+00  0.1600E+02
    -17.639  0.0000E+00  0.1600E+02
    -17.545  0.0000E+00  0.1600E+02
    -17.450  0.0000E+00  0.1600E+02
    -17.355  0.0000E+00  0.1600E+02
    -17.261  0.0000E+00  0.1600E+02
    -17.166  0.0000E+00  0.1600E+02
    -17.071  0.0000E+00  0.1600E+02
    -16.977  0.0000E+00  0.1600E+02
    -16.882  0.0000E+00  0.1600E+02
    -16.788  0.0000E+00  0.1600E+02
    -16.693  0.0000E+00  0.1600E+02
    -16.598  0.0000E+00  0.1600E+02
    -16.504  0.0000E+00  0.1600E+02
    -16.409  0.0000E+00  0.1600E+02
    -16.314  0.0000E+00  0.1600E+02
    -16.220  0.0000E+00  0.1600E+02
    -16.125  0.0000E+00  0.1600E+02
    -16.030  0.0000E+00  0.1600E+02
    -15.936  0.0000E+00  0.1600E+02
    -15.841  0.0000E+00  0.1600E+02
    -15.746  0.0000E+00  0.1600E+02
    -15.652  0.0000E+00  0.1600E+02
    -15.557  0.0000E+00  0.1600E+02
    -15.462  0.0000E+00  0.1600E+02
    -15.368  0.0000E+00  0.1600E+02
    -15.273  0.0000E+00  0.1600E+02
    -15.178  0.0000E+00  0.1600E+02
    -15.084  0.3913E+02  0.3200E+02
    -14.989  0.0000E+00  0.9600E+02
    -14.894  0.0000E+00  0.9600E+02
    -14.800  0.0000E+00  0.9600E+02
    -14.705  0.0000E+00  0.9600E+02
    -14.610  0.0000E+00  0.9600E+02
    -14.516  0.0000E+00  0.9600E+02
    -14.421  0.0000E+00  0.9600E+02
    -14.326  0.0000E+00  0.9600E+02
    -14.232  0.0000E+00  0.9600E+02
    -14.137  0.0000E+00  0.9600E+02
    -14.042  0.0000E+00  0.9600E+02
    -13.948  0.0000E+00  0.9600E+02
    -13.853  0.0000E+00  0.9600E+02
    -13.758  0.0000E+00  0.9600E+02
    -13.664  0.0000E+00  0.9600E+02
    -13.569  0.0000E+00  0.9600E+02
    -13.474  0.0000E+00  0.9600E+02
    -13.380  0.0000E+00  0.9600E+02
    -13.285  0.0000E+00  0.9600E+02
    -13.191  0.0000E+00  0.9600E+02
    -13.096  0.0000E+00  0.9600E+02
    -13.001  0.0000E+00  0.9600E+02
    -12.907  0.0000E+00  0.9600E+02
    -12.812  0.0000E+00  0.9600E+02
    -12.717  0.0000E+00  0.9600E+02
    -12.623  0.0000E+00  0.9600E+02
    -12.528  0.0000E+00  0.9600E+02
    -12.433  0.0000E+00  0.9600E+02
    -12.339  0.0000E+00  0.9600E+02
    -12.244  0.0000E+00  0.9600E+02
    -12.149  0.0000E+00  0.9600E+02
    -12.055  0.0000E+00  0.9600E+02
    -11.960  0.0000E+00  0.9600E+02
    -11.865  0.0000E+00  0.9600E+02
    -11.771  0.0000E+00  0.9600E+02
    -11.676  0.0000E+00  0.9600E+02
    -11.581  0.0000E+00  0.9600E+02
    -11.487  0.0000E+00  0.9600E+02
    -11.392  0.0000E+00  0.9600E+02
    -11.297  0.0000E+00  0.1040E+03
    -11.203  0.0000E+00  0.1120E+03
    -11.108  0.0000E+00  0.1120E+03
    -11.013  0.0000E+00  0.1120E+03
    -10.919  0.0000E+00  0.1120E+03
    -10.824  0.0000E+00  0.1121E+03
    -10.729  0.3130E+01  0.1137E+03
    -10.635  0.8462E+01  0.1180E+03
    -10.540  0.5210E+01  0.1239E+03
    -10.445  0.2647E+00  0.1282E+03
    -10.351  0.1537E+02  0.1313E+03
    -10.256  0.7825E+01  0.1399E+03
    -10.161  0.2761E+01  0.1428E+03
    -10.067  0.3334E+01  0.1450E+03
     -9.972  0.1565E+01  0.1552E+03
     -9.877  0.0000E+00  0.1600E+03
     -9.783  0.0000E+00  0.1600E+03
     -9.688  0.0000E+00  0.1600E+03
     -9.594  0.0000E+00  0.1600E+03
     -9.499  0.0000E+00  0.1600E+03
     -9.404  0.0000E+00  0.1600E+03
     -9.310  0.0000E+00  0.1600E+03
     -9.215  0.0000E+00  0.1600E+03
     -9.120  0.0000E+00  0.1600E+03
     -9.026  0.0000E+00  0.1600E+03
     -8.931  0.0000E+00  0.1600E+03
     -8.836  0.0000E+00  0.1600E+03
     -8.742  0.0000E+00  0.1600E+03
     -8.647  0.0000E+00  0.1600E+03
     -8.552  0.0000E+00  0.1600E+03
     -8.458  0.0000E+00  0.1600E+03
     -8.363  0.0000E+00  0.1600E+03
     -8.268  0.0000E+00  0.1600E+03
     -8.174  0.0000E+00  0.1600E+03
     -8.079  0.0000E+00  0.1600E+03
     -7.984  0.0000E+00  0.1600E+03
     -7.890  0.0000E+00  0.1600E+03
     -7.795  0.0000E+00  0.1600E+03
     -7.700  0.0000E+00  0.1680E+03
     -7.606  0.1096E+02  0.1880E+03
     -7.511  0.0000E+00  0.1920E+03
     -7.416  0.0000E+00  0.1920E+03
     -7.322  0.0000E+00  0.1920E+03
     -7.227  0.0000E+00  0.1920E+03
     -7.132  0.0000E+00  0.1920E+03
     -7.038  0.0000E+00  0.1921E+03
     -6.943  0.0000E+00  0.1921E+03
     -6.848  0.0000E+00  0.1925E+03
     -6.754  0.0000E+00  0.1934E+03
     -6.659  0.0000E+00  0.1941E+03
     -6.564  0.0000E+00  0.1944E+03
     -6.470  0.0000E+00  0.1964E+03
     -6.375  0.6950E-15  0.1987E+03
     -6.280  0.0000E+00  0.1997E+03
     -6.186  0.6252E+01  0.2015E+03
     -6.091  0.2043E-03  0.2033E+03
     -5.997  0.5476E+01  0.2051E+03
     -5.902  0.0000E+00  0.2063E+03
     -5.807  0.8253E+01  0.2113E+03
     -5.713  0.1565E+01  0.2226E+03
     -5.618  0.0000E+00  0.2235E+03
     -5.523  0.0000E+00  0.2239E+03
     -5.429  0.0000E+00  0.2239E+03
     -5.334  0.0000E+00  0.2240E+03
     -5.239  0.0000E+00  0.2240E+03
     -5.145  0.0000E+00  0.2240E+03
     -5.050  0.0000E+00  0.2240E+03
     -4.955  0.0000E+00  0.2240E+03
     -4.861  0.0000E+00  0.2240E+03
     -4.766  0.0000E+00  0.2240E+03
     -4.671  0.0000E+00  0.2240E+03
     -4.577  0.0000E+00  0.2240E+03
     -4.482  0.0000E+00  0.2240E+03
     -4.387  0.0000E+00  0.2240E+03
     -4.293  0.0000E+00  0.2240E+03
     -4.198  0.0000E+00  0.2240E+03
     -4.103  0.0000E+00  0.2240E+03
     -4.009  0.0000E+00  0.2240E+03
     -3.914  0.0000E+00  0.2240E+03
     -3.819  0.0000E+00  0.2240E+03
     -3.725  0.0000E+00  0.2240E+03
     -3.630  0.0000E+00  0.2240E+03
     -3.535  0.3075E+02  0.2408E+03
     -3.441  0.0000E+00  0.2560E+03
     -3.346  0.0000E+00  0.2560E+03
     -3.251  0.0000E+00  0.2560E+03
     -3.157  0.0000E+00  0.2560E+03
     -3.062  0.0000E+00  0.2560E+03
     -2.967  0.0000E+00  0.2560E+03
     -2.873  0.0000E+00  0.2560E+03
     -2.778  0.0000E+00  0.2560E+03
     -2.683  0.0000E+00  0.2560E+03
     -2.589  0.0000E+00  0.2560E+03
     -2.494  0.0000E+00  0.2560E+03
     -2.400  0.0000E+00  0.2560E+03
     -2.305  0.0000E+00  0.2560E+03
     -2.210  0.0000E+00  0.2560E+03
     -2.116  0.6704E+00  0.2561E+03
     -2.021  0.4873E-01  0.2582E+03
     -1.926  0.7344E+00  0.2613E+03
     -1.832  0.2271E-03  0.2633E+03
     -1.737  0.4695E+01  0.2657E+03
     -1.642  0.4012E+00  0.2685E+03
     -1.548  0.4695E+01  0.2724E+03
     -1.453  0.4668E+01  0.2756E+03
     -1.358  0.2930E-05  0.2785E+03
     -1.264  0.0000E+00  0.2796E+03
     -1.169  0.0000E+00  0.2800E+03
     -1.074  0.0000E+00  0.2800E+03
     -0.980  0.3785E+01  0.2810E+03
     -0.885  0.0000E+00  0.2850E+03
     -0.790  0.3130E+01  0.2910E+03
     -0.696  0.7575E+01  0.2968E+03
     -0.601  0.1557E+01  0.3023E+03
     -0.506  0.4781E+01  0.3054E+03
     -0.412  0.8458E+01  0.3088E+03
     -0.317  0.3908E+01  0.3141E+03
     -0.222  0.6633E+01  0.3204E+03
     -0.128  0.4699E+01  0.3272E+03
     -0.033  0.1575E+01  0.3329E+03
      0.062  0.6261E+01  0.3394E+03
      0.156  0.3362E+01  0.3471E+03
      0.251  0.1643E+02  0.3572E+03
      0.346  0.4686E+01  0.3637E+03
      0.440  0.7408E+01  0.3706E+03
      0.535  0.7067E+01  0.3803E+03
      0.630  0.3130E+01  0.3865E+03
      0.724  0.5461E+01  0.3921E+03
      0.819  0.0000E+00  0.3960E+03
      0.914  0.3388E-14  0.3975E+03
      1.008  0.3320E-02  0.3991E+03
      1.103  0.0000E+00  0.3993E+03
      1.197  0.0000E+00  0.3998E+03
      1.292  0.0000E+00  0.3999E+03
      1.387  0.0000E+00  0.4000E+03
      1.481  0.0000E+00  0.4000E+03
      1.576  0.0000E+00  0.4000E+03
      1.671  0.0000E+00  0.4000E+03
      1.765  0.0000E+00  0.4000E+03
      1.860  0.0000E+00  0.4000E+03
      1.955  0.0000E+00  0.4000E+03
      2.049  0.0000E+00  0.4000E+03
      2.144  0.0000E+00  0.4000E+03
      2.239  0.0000E+00  0.4000E+03
      2.333  0.0000E+00  0.4000E+03
      2.428  0.0000E+00  0.4000E+03
      2.523  0.0000E+00  0.4000E+03
      2.617  0.0000E+00  0.4000E+03
      2.712  0.0000E+00  0.4000E+03
      2.807  0.0000E+00  0.4000E+03
      2.901  0.0000E+00  0.4000E+03
      2.996  0.5238E-11  0.4002E+03
      3.091  0.0000E+00  0.4007E+03
      3.185  0.2653E-02  0.4012E+03
      3.280  0.0000E+00  0.4029E+03
      3.375  0.0000E+00  0.4036E+03
      3.469  0.6950E-15  0.4056E+03
      3.564  0.2347E+01  0.4067E+03
      3.659  0.0000E+00  0.4077E+03
      3.753  0.1565E+01  0.4083E+03
      3.848  0.0000E+00  0.4090E+03
      3.943  0.3130E+01  0.4099E+03
      4.037  0.0000E+00  0.4108E+03
      4.132  0.1565E+01  0.4135E+03
      4.227  0.0000E+00  0.4150E+03
      4.321  0.3130E+01  0.4172E+03
      4.416  0.9470E+00  0.4198E+03
      4.511  0.0000E+00  0.4227E+03
      4.605  0.3130E+01  0.4239E+03
      4.700  0.0000E+00  0.4239E+03
      4.794  0.0000E+00  0.4240E+03
      4.889  0.0000E+00  0.4240E+03
      4.984  0.0000E+00  0.4240E+03
      5.078  0.0000E+00  0.4241E+03
      5.173  0.5174E-03  0.4244E+03
      5.268  0.3130E+01  0.4260E+03
      5.362  0.1790E+01  0.4279E+03
      5.457  0.7189E+01  0.4313E+03
      5.552  0.8688E-16  0.4347E+03
      5.646  0.1565E+01  0.4381E+03
      5.741  0.8926E-05  0.4401E+03
      5.836  0.0000E+00  0.4421E+03
      5.930  0.4897E+01  0.4451E+03
      6.025  0.5417E-01  0.4477E+03
      6.120  0.6239E+01  0.4518E+03
      6.214  0.9688E+01  0.4568E+03
      6.309  0.3273E+01  0.4602E+03
      6.404  0.1569E+01  0.4632E+03
      6.498  0.5806E+01  0.4677E+03
      6.593  0.6260E+01  0.4738E+03
      6.688  0.2798E+01  0.4773E+03
      6.782  0.3149E+01  0.4808E+03
      6.877  0.1738E+01  0.4844E+03
      6.972  0.2349E+01  0.4882E+03
      7.066  0.3096E+01  0.4919E+03
      7.161  0.8880E+01  0.4967E+03
      7.256  0.3130E+01  0.5002E+03
      7.350  0.1565E+01  0.5044E+03
      7.445  0.1565E+01  0.5090E+03
      7.540  0.1565E+01  0.5113E+03
      7.634  0.0000E+00  0.5120E+03
      7.729  0.0000E+00  0.5120E+03
      7.824  0.0000E+00  0.5120E+03
      7.918  0.0000E+00  0.5120E+03
      8.013  0.0000E+00  0.5120E+03
      8.107  0.0000E+00  0.5120E+03
      8.202  0.0000E+00  0.5120E+03
      8.297  0.0000E+00  0.5120E+03
      8.391  0.0000E+00  0.5120E+03
      8.486  0.0000E+00  0.5120E+03
      8.581  0.0000E+00  0.5120E+03
      8.675  0.0000E+00  0.5120E+03
      8.770  0.0000E+00  0.5120E+03
      8.865  0.0000E+00  0.5120E+03
