 running on   96 total cores
 distrk:  each k-point on   24 cores,    4 groups
 distr:  one band on    3 cores,    8 groups
 using from now: INCAR     
 vasp.5.4.1 24Jun15 (build Nov 25 2015 16:01:35) complex                        
  
 POSCAR found type information on POSCAR  C  N  H  Pb I 
 POSCAR found :  5 types and      96 ions
 scaLAPACK will be used

 ----------------------------------------------------------------------------- 
|                                                                             |
|           W    W    AA    RRRRR   N    N  II  N    N   GGGG   !!!           |
|           W    W   A  A   R    R  NN   N  II  NN   N  G    G  !!!           |
|           W    W  A    A  R    R  N N  N  II  N N  N  G       !!!           |
|           W WW W  AAAAAA  RRRRR   N  N N  II  N  N N  G  GGG   !            |
|           WW  WW  A    A  R   R   N   NN  II  N   NN  G    G                |
|           W    W  A    A  R    R  N    N  II  N    N   GGGG   !!!           |
|                                                                             |
|      For optimal performance we recommend to set                            |
|        NCORE= 4 - approx SQRT( number of cores)                             |
|      NCORE specifies how many cores store one orbital (NPAR=cpu/NCORE).     |
|      This setting can  greatly improve the performance of VASP for DFT.     |
|      The default, NPAR=number of cores might be grossly inefficient         |
|      on modern multi-core architectures or massively parallel machines.     |
|      Do your own testing !!!!                                               |
|      Unfortunately you need to use the default for GW and RPA calculations. |
|      (for HF NCORE is supported but not extensively tested yet)             |
|                                                                             |
 ----------------------------------------------------------------------------- 


 ----------------------------------------------------------------------------- 
|                                                                             |
|           W    W    AA    RRRRR   N    N  II  N    N   GGGG   !!!           |
|           W    W   A  A   R    R  NN   N  II  NN   N  G    G  !!!           |
|           W    W  A    A  R    R  N N  N  II  N N  N  G       !!!           |
|           W WW W  AAAAAA  RRRRR   N  N N  II  N  N N  G  GGG   !            |
|           WW  WW  A    A  R   R   N   NN  II  N   NN  G    G                |
|           W    W  A    A  R    R  N    N  II  N    N   GGGG   !!!           |
|                                                                             |
|      You have enabled k-point parallelism (KPAR>1).                         |
|      This developmental code was originally  written by Paul Kent at ORNL,  |
|      and carefully double checked in Vienna.                                |
|      GW as well as linear response parallelism added by Martijn Marsman     |
|      and Georg Kresse.                                                      |
|      Carefully verify results versus KPAR=1.                                |
|      Report problems to Paul Kent and Vienna.                               |
|                                                                             |
 ----------------------------------------------------------------------------- 


 ----------------------------------------------------------------------------- 
|                                                                             |
|  ADVICE TO THIS USER RUNNING 'VASP/VAMP'   (HEAR YOUR MASTER'S VOICE ...):  |
|                                                                             |
|      You have a (more or less) 'large supercell' and for larger cells       |
|      it might be more efficient to use real space projection opertators     |
|      So try LREAL= Auto  in the INCAR   file.                               |
|      Mind: At the moment your POTCAR file does not contain real space       |
|       projectors, and has to be modified,  BUT if you                       |
|      want to do an extremely  accurate calculation you might also keep the  |
|      reciprocal projection scheme          (i.e. LREAL=.FALSE.)             |
|                                                                             |
 ----------------------------------------------------------------------------- 


 ----------------------------------------------------------------------------- 
|                                                                             |
|  ADVICE TO THIS USER RUNNING 'VASP/VAMP'   (HEAR YOUR MASTER'S VOICE ...):  |
|                                                                             |
|      You enforced a specific xc-type in the INCAR file,                     |
|      a different type was found on the POTCAR file                          |
|          I HOPE YOU KNOW, WHAT YOU ARE  DOING                               |
|                                                                             |
 ----------------------------------------------------------------------------- 

 LDA part: xc-table for Pade appr. of Perdew
 POSCAR, INCAR and KPOINTS ok, starting setup
 WARNING: small aliasing (wrap around) errors must be expected
 FFT: planning ...
 WAVECAR not read
 entering main loop
       N       E                     dE             d eps       ncg     rms          rms(c)
DAV:   1     0.359976699284E+04    0.35998E+04   -0.18946E+05  7176   0.170E+03
DAV:   2     0.198034759948E+03   -0.34017E+04   -0.32092E+04  8024   0.354E+02
DAV:   3    -0.398241282478E+03   -0.59628E+03   -0.58772E+03  9432   0.171E+02
DAV:   4    -0.438500856981E+03   -0.40260E+02   -0.40086E+02  9600   0.490E+01
DAV:   5    -0.440050280375E+03   -0.15494E+01   -0.15471E+01  9768   0.932E+00    0.296E+01
DAV:   6    -0.419543556482E+03    0.20507E+02   -0.41353E+01  9472   0.103E+01    0.156E+01
DAV:   7    -0.417073178823E+03    0.24704E+01   -0.14695E+01 10208   0.640E+00    0.779E+00
DAV:   8    -0.416902401227E+03    0.17078E+00   -0.30789E+00  8584   0.320E+00    0.183E+00
DAV:   9    -0.416829649716E+03    0.72752E-01   -0.75726E-01  9432   0.176E+00    0.733E-01
DAV:  10    -0.416841253803E+03   -0.11604E-01   -0.10853E-01  8944   0.586E-01    0.460E-01
DAV:  11    -0.416841129337E+03    0.12447E-03   -0.13362E-02  9960   0.271E-01    0.202E-01
DAV:  12    -0.416842495863E+03   -0.13665E-02   -0.94276E-03  9832   0.155E-01    0.107E-01
DAV:  13    -0.416842642341E+03   -0.14648E-03   -0.14046E-03  8424   0.778E-02    0.729E-02
DAV:  14    -0.416842684259E+03   -0.41918E-04   -0.27303E-04  8672   0.291E-02    0.329E-02
DAV:  15    -0.416842728845E+03   -0.44586E-04   -0.16019E-04  8192   0.209E-02    0.119E-02
DAV:  16    -0.416842732904E+03   -0.40587E-05   -0.15898E-05 10712   0.778E-03    0.124E-02
DAV:  17    -0.416842732875E+03    0.29078E-07   -0.38256E-06  8256   0.346E-03    0.564E-03
DAV:  18    -0.416842732939E+03   -0.64585E-07   -0.89986E-06  9944   0.474E-03    0.371E-03
DAV:  19    -0.416842732935E+03    0.43983E-08   -0.91058E-07  8664   0.225E-03    0.251E-03
DAV:  20    -0.416842732943E+03   -0.75743E-08   -0.54456E-07  9408   0.112E-03    0.449E-04
DAV:  21    -0.416842732984E+03   -0.41167E-07   -0.57578E-08  8600   0.523E-04    0.313E-04
DAV:  22    -0.416842732976E+03    0.81382E-08   -0.47391E-09  7616   0.189E-04    0.257E-04
DAV:  23    -0.416842732981E+03   -0.52823E-08   -0.23467E-09  8888   0.131E-04    0.241E-04
DAV:  24    -0.416842732980E+03    0.12697E-08    0.87822E-10  7384   0.797E-05    0.211E-04
DAV:  25    -0.416842732977E+03    0.24957E-08    0.18372E-09  6576   0.480E-05    0.216E-04
DAV:  26    -0.416842732979E+03   -0.13861E-08    0.20351E-09  4728   0.332E-05    0.210E-04
DAV:  27    -0.416842732980E+03   -0.12224E-08    0.17800E-09  5248   0.335E-05    0.207E-04
DAV:  28    -0.416842732980E+03   -0.22192E-09    0.22616E-09  4256   0.235E-05    0.207E-04
DAV:  29    -0.416842732980E+03   -0.69122E-10    0.19652E-09  4240   0.102E-05    0.207E-04
DAV:  30    -0.416842732980E+03    0.14188E-09    0.16695E-09  4232   0.708E-06    0.207E-04
DAV:  31    -0.416842732980E+03   -0.58208E-10    0.17085E-09  4216   0.654E-06    0.206E-04
DAV:  32    -0.416842732980E+03    0.10914E-09    0.13801E-09  4208   0.584E-06    0.206E-04
DAV:  33    -0.416842732980E+03    0.31287E-09    0.14849E-09  4176   0.332E-06    0.206E-04
DAV:  34    -0.416842732980E+03   -0.58935E-09    0.11516E-09  4160   0.228E-06    0.206E-04
DAV:  35    -0.416842732980E+03    0.60390E-09    0.94431E-10  4136   0.140E-06    0.206E-04
DAV:  36    -0.416842732980E+03   -0.34561E-09    0.87625E-10  4128   0.955E-07    0.206E-04
DAV:  37    -0.416842732980E+03   -0.80036E-10    0.90548E-10  4096   0.115E-06
   1 F= -.41684273E+03 E0= -.41684273E+03  d E =0.000000E+00
Application 22533484 resources: utime ~287767s, stime ~254s, Rss ~648040, inblocks ~897643, outblocks ~776387
