   2   2   1   0
  0.2002393E+02  0.3840297E-09  0.3840297E-09  0.3840297E-09  0.5000000E-15
  1.000000000000000E-004
  CAR 
 Name                                    
     16.84844327     -7.27845801  301      5.85059744      1.00000000
     -7.278  0.0000E+00  0.0000E+00
     -7.198  0.0000E+00  0.0000E+00
     -7.118  0.0000E+00  0.0000E+00
     -7.037  0.0000E+00  0.0000E+00
     -6.957  0.0000E+00  0.0000E+00
     -6.876  0.0000E+00  0.0000E+00
     -6.796  0.0000E+00  0.0000E+00
     -6.715  0.0000E+00  0.0000E+00
     -6.635  0.0000E+00  0.0000E+00
     -6.555  0.0000E+00  0.0000E+00
     -6.474  0.0000E+00  0.0000E+00
     -6.394  0.0000E+00  0.0000E+00
     -6.313  0.0000E+00  0.0000E+00
     -6.233  0.2781E-13  0.2237E-14
     -6.153  0.1219E+00  0.9804E-02
     -6.072  0.0000E+00  0.9804E-02
     -5.992  0.0000E+00  0.9804E-02
     -5.911  0.0000E+00  0.9804E-02
     -5.831  0.6867E-01  0.1533E-01
     -5.750  0.9066E+00  0.8824E-01
     -5.670  0.7314E+00  0.1471E+00
     -5.590  0.0000E+00  0.1471E+00
     -5.509  0.0000E+00  0.1471E+00
     -5.429  0.0000E+00  0.1471E+00
     -5.348  0.0000E+00  0.1471E+00
     -5.268  0.2383E-06  0.1471E+00
     -5.187  0.1463E+01  0.2647E+00
     -5.107  0.0000E+00  0.2647E+00
     -5.027  0.0000E+00  0.2647E+00
     -4.946  0.0000E+00  0.2647E+00
     -4.866  0.2889E+01  0.4971E+00
     -4.785  0.9699E+00  0.5780E+00
     -4.705  0.0000E+00  0.5784E+00
     -4.624  0.0000E+00  0.5784E+00
     -4.544  0.0000E+00  0.5784E+00
     -4.464  0.0000E+00  0.5784E+00
     -4.383  0.0000E+00  0.5784E+00
     -4.303  0.1080E-03  0.5784E+00
     -4.222  0.7313E+00  0.6373E+00
     -4.142  0.0000E+00  0.6373E+00
     -4.062  0.2762E+01  0.8594E+00
     -3.981  0.0000E+00  0.8725E+00
     -3.901  0.2214E+00  0.8904E+00
     -3.820  0.3192E+01  0.1147E+01
     -3.740  0.2940E-13  0.1147E+01
     -3.659  0.2925E+01  0.1382E+01
     -3.579  0.0000E+00  0.1382E+01
     -3.499  0.0000E+00  0.1382E+01
     -3.418  0.0000E+00  0.1382E+01
     -3.338  0.0000E+00  0.1382E+01
     -3.257  0.0000E+00  0.1382E+01
     -3.177  0.0000E+00  0.1382E+01
     -3.096  0.2885E+01  0.1614E+01
     -3.016  0.0000E+00  0.1618E+01
     -2.936  0.7143E-03  0.1618E+01
     -2.855  0.4388E+01  0.1971E+01
     -2.775  0.0000E+00  0.1971E+01
     -2.694  0.0000E+00  0.1971E+01
     -2.614  0.0000E+00  0.1971E+01
     -2.534  0.0000E+00  0.1971E+01
     -2.453  0.0000E+00  0.1971E+01
     -2.373  0.0000E+00  0.1971E+01
     -2.292  0.0000E+00  0.1971E+01
     -2.212  0.0000E+00  0.1971E+01
     -2.131  0.0000E+00  0.1971E+01
     -2.051  0.2454E-01  0.1973E+01
     -1.971  0.7069E+00  0.2029E+01
     -1.890  0.0000E+00  0.2029E+01
     -1.810  0.0000E+00  0.2029E+01
     -1.729  0.0000E+00  0.2029E+01
     -1.649  0.0000E+00  0.2029E+01
     -1.568  0.0000E+00  0.2029E+01
     -1.488  0.0000E+00  0.2029E+01
     -1.408  0.0000E+00  0.2029E+01
     -1.327  0.0000E+00  0.2029E+01
     -1.247  0.2942E-05  0.2029E+01
     -1.166  0.4876E+00  0.2069E+01
     -1.086  0.5091E-01  0.2073E+01
     -1.005  0.2985E+01  0.2313E+01
     -0.925  0.1353E+01  0.2422E+01
     -0.845  0.1473E+01  0.2540E+01
     -0.764  0.2925E+01  0.2892E+01
     -0.684  0.0000E+00  0.2892E+01
     -0.603  0.0000E+00  0.2892E+01
     -0.523  0.0000E+00  0.2892E+01
     -0.443  0.0000E+00  0.2892E+01
     -0.362  0.0000E+00  0.2892E+01
     -0.282  0.8186E-07  0.2892E+01
     -0.201  0.2926E+01  0.3127E+01
     -0.121  0.0000E+00  0.3127E+01
     -0.040  0.0000E+00  0.3127E+01
      0.040  0.0000E+00  0.3127E+01
      0.120  0.2417E+00  0.3147E+01
      0.201  0.2684E+01  0.3363E+01
      0.281  0.0000E+00  0.3363E+01
      0.362  0.0000E+00  0.3363E+01
      0.442  0.9685E+00  0.3441E+01
      0.523  0.0000E+00  0.3441E+01
      0.603  0.0000E+00  0.3441E+01
      0.683  0.0000E+00  0.3441E+01
      0.764  0.4319E+00  0.3476E+01
      0.844  0.0000E+00  0.3500E+01
      0.925  0.0000E+00  0.3500E+01
      1.005  0.0000E+00  0.3500E+01
      1.086  0.0000E+00  0.3500E+01
      1.166  0.0000E+00  0.3500E+01
      1.246  0.0000E+00  0.3500E+01
      1.327  0.1692E+01  0.3636E+01
      1.407  0.2696E+01  0.3853E+01
      1.488  0.0000E+00  0.3853E+01
      1.568  0.0000E+00  0.3853E+01
      1.648  0.0000E+00  0.3853E+01
      1.729  0.2983E+00  0.3877E+01
      1.809  0.2627E+01  0.4088E+01
      1.890  0.0000E+00  0.4088E+01
      1.970  0.0000E+00  0.4088E+01
      2.051  0.9084E+00  0.4161E+01
      2.131  0.2775E+01  0.4429E+01
      2.211  0.2926E+01  0.4676E+01
      2.292  0.0000E+00  0.4676E+01
      2.372  0.0000E+00  0.4676E+01
      2.453  0.0000E+00  0.4676E+01
      2.533  0.0000E+00  0.4676E+01
      2.614  0.0000E+00  0.4676E+01
      2.694  0.7808E-01  0.4683E+01
      2.774  0.2848E+01  0.4912E+01
      2.855  0.0000E+00  0.4912E+01
      2.935  0.7090E+00  0.4969E+01
      3.016  0.5833E+01  0.5440E+01
      3.096  0.0000E+00  0.5441E+01
      3.177  0.8424E-09  0.5441E+01
      3.257  0.2926E+01  0.5676E+01
      3.337  0.3132E+00  0.5702E+01
      3.418  0.3588E+01  0.5990E+01
      3.498  0.2926E+01  0.6225E+01
      3.579  0.0000E+00  0.6225E+01
      3.659  0.3723E+00  0.6255E+01
      3.739  0.1810E+01  0.6401E+01
      3.820  0.2926E+01  0.6637E+01
      3.900  0.0000E+00  0.6637E+01
      3.981  0.1022E-01  0.6638E+01
      4.061  0.5841E+01  0.7108E+01
      4.142  0.0000E+00  0.7108E+01
      4.222  0.0000E+00  0.7108E+01
      4.302  0.0000E+00  0.7108E+01
      4.383  0.0000E+00  0.7108E+01
      4.463  0.2101E-01  0.7110E+01
      4.544  0.2905E+01  0.7343E+01
      4.624  0.2438E+01  0.7539E+01
      4.705  0.0000E+00  0.7539E+01
      4.785  0.1658E+01  0.7673E+01
      4.865  0.0000E+00  0.7696E+01
      4.946  0.0000E+00  0.7696E+01
      5.026  0.0000E+00  0.7696E+01
      5.107  0.0000E+00  0.7696E+01
      5.187  0.1006E-03  0.7696E+01
      5.268  0.1463E+01  0.7814E+01
      5.348  0.1949E+01  0.7970E+01
      5.428  0.0000E+00  0.7971E+01
      5.509  0.0000E+00  0.7971E+01
      5.589  0.0000E+00  0.7971E+01
      5.670  0.0000E+00  0.7971E+01
      5.750  0.3045E-04  0.7971E+01
      5.830  0.3657E+00  0.8000E+01
      5.911  0.0000E+00  0.8000E+01
      5.991  0.0000E+00  0.8000E+01
      6.072  0.0000E+00  0.8000E+01
      6.152  0.0000E+00  0.8000E+01
      6.233  0.0000E+00  0.8000E+01
      6.313  0.0000E+00  0.8000E+01
      6.393  0.8138E+00  0.8065E+01
      6.474  0.6454E+00  0.8118E+01
      6.554  0.0000E+00  0.8118E+01
      6.635  0.0000E+00  0.8118E+01
      6.715  0.1278E-01  0.8119E+01
      6.796  0.2913E+01  0.8353E+01
      6.876  0.0000E+00  0.8353E+01
      6.956  0.0000E+00  0.8353E+01
      7.037  0.0000E+00  0.8353E+01
      7.117  0.0000E+00  0.8353E+01
      7.198  0.1253E+00  0.8363E+01
      7.278  0.1825E+01  0.8510E+01
      7.359  0.6842E-10  0.8510E+01
      7.439  0.1596E+01  0.8638E+01
      7.519  0.0000E+00  0.8647E+01
      7.600  0.6496E-15  0.8647E+01
      7.680  0.3654E+01  0.8941E+01
      7.761  0.2926E+01  0.9176E+01
      7.841  0.0000E+00  0.9176E+01
      7.921  0.0000E+00  0.9176E+01
      8.002  0.1970E-05  0.9176E+01
      8.082  0.9752E+00  0.9255E+01
      8.163  0.2924E+01  0.9490E+01
      8.243  0.6943E-14  0.9490E+01
      8.324  0.3657E+00  0.9520E+01
      8.404  0.2093E+01  0.9688E+01
      8.484  0.0000E+00  0.9755E+01
      8.565  0.2893E+01  0.9988E+01
      8.645  0.0000E+00  0.9990E+01
      8.726  0.2474E-01  0.9992E+01
      8.806  0.1438E+01  0.1011E+02
      8.887  0.1191E-14  0.1011E+02
      8.967  0.1951E+01  0.1026E+02
      9.047  0.2443E+01  0.1046E+02
      9.128  0.9651E+00  0.1059E+02
      9.208  0.3582E-03  0.1059E+02
      9.289  0.5725E+01  0.1105E+02
      9.369  0.8957E-03  0.1110E+02
      9.450  0.2925E+01  0.1133E+02
      9.530  0.9026E-01  0.1134E+02
      9.610  0.1373E+01  0.1145E+02
      9.691  0.0000E+00  0.1145E+02
      9.771  0.2920E+01  0.1169E+02
      9.852  0.5851E+01  0.1216E+02
      9.932  0.1168E+01  0.1225E+02
     10.012  0.5414E+01  0.1269E+02
     10.093  0.1457E+01  0.1280E+02
     10.173  0.8206E-11  0.1280E+02
     10.254  0.2926E+01  0.1304E+02
     10.334  0.1628E+00  0.1305E+02
     10.415  0.2763E+01  0.1327E+02
     10.495  0.0000E+00  0.1327E+02
     10.575  0.0000E+00  0.1327E+02
     10.656  0.0000E+00  0.1327E+02
     10.736  0.0000E+00  0.1327E+02
     10.817  0.2908E+01  0.1351E+02
     10.897  0.0000E+00  0.1351E+02
     10.978  0.0000E+00  0.1351E+02
     11.058  0.4448E-06  0.1351E+02
     11.138  0.9752E+00  0.1359E+02
     11.219  0.0000E+00  0.1359E+02
     11.299  0.4291E-03  0.1359E+02
     11.380  0.1462E+01  0.1371E+02
     11.460  0.2256E-02  0.1371E+02
     11.541  0.1461E+01  0.1382E+02
     11.621  0.0000E+00  0.1382E+02
     11.701  0.0000E+00  0.1382E+02
     11.782  0.1099E+01  0.1391E+02
     11.862  0.1826E+01  0.1406E+02
     11.943  0.0000E+00  0.1406E+02
     12.023  0.0000E+00  0.1406E+02
     12.103  0.1752E+01  0.1420E+02
     12.184  0.4118E+00  0.1433E+02
     12.264  0.3977E+01  0.1465E+02
     12.345  0.0000E+00  0.1465E+02
     12.425  0.0000E+00  0.1465E+02
     12.506  0.0000E+00  0.1465E+02
     12.586  0.0000E+00  0.1465E+02
     12.666  0.0000E+00  0.1465E+02
     12.747  0.2934E+00  0.1467E+02
     12.827  0.4095E+01  0.1500E+02
     12.908  0.1429E-13  0.1500E+02
     12.988  0.4387E+01  0.1535E+02
     13.069  0.0000E+00  0.1535E+02
     13.149  0.8019E+00  0.1542E+02
     13.229  0.5050E+01  0.1582E+02
     13.310  0.4876E+00  0.1586E+02
     13.390  0.0000E+00  0.1586E+02
     13.471  0.9736E+00  0.1594E+02
     13.551  0.0000E+00  0.1594E+02
     13.632  0.0000E+00  0.1594E+02
     13.712  0.0000E+00  0.1594E+02
     13.792  0.0000E+00  0.1594E+02
     13.873  0.0000E+00  0.1594E+02
     13.953  0.0000E+00  0.1594E+02
     14.034  0.0000E+00  0.1594E+02
     14.114  0.0000E+00  0.1594E+02
     14.194  0.0000E+00  0.1594E+02
     14.275  0.0000E+00  0.1594E+02
     14.355  0.0000E+00  0.1594E+02
     14.436  0.0000E+00  0.1594E+02
     14.516  0.0000E+00  0.1594E+02
     14.597  0.0000E+00  0.1594E+02
     14.677  0.0000E+00  0.1594E+02
     14.757  0.0000E+00  0.1594E+02
     14.838  0.0000E+00  0.1594E+02
     14.918  0.0000E+00  0.1594E+02
     14.999  0.0000E+00  0.1594E+02
     15.079  0.0000E+00  0.1594E+02
     15.160  0.0000E+00  0.1594E+02
     15.240  0.0000E+00  0.1594E+02
     15.320  0.0000E+00  0.1594E+02
     15.401  0.0000E+00  0.1594E+02
     15.481  0.0000E+00  0.1594E+02
     15.562  0.0000E+00  0.1594E+02
     15.642  0.0000E+00  0.1594E+02
     15.723  0.1527E-04  0.1594E+02
     15.803  0.7314E+00  0.1600E+02
     15.883  0.0000E+00  0.1600E+02
     15.964  0.0000E+00  0.1600E+02
     16.044  0.0000E+00  0.1600E+02
     16.125  0.0000E+00  0.1600E+02
     16.205  0.0000E+00  0.1600E+02
     16.285  0.0000E+00  0.1600E+02
     16.366  0.0000E+00  0.1600E+02
     16.446  0.0000E+00  0.1600E+02
     16.527  0.0000E+00  0.1600E+02
     16.607  0.0000E+00  0.1600E+02
     16.688  0.0000E+00  0.1600E+02
     16.768  0.0000E+00  0.1600E+02
     16.848  0.0000E+00  0.1600E+02
     16.84844327     -7.27845801  301      5.85059744      1.00000000
     -7.278  0.0000E+00  0.0000E+00  0.0000E+00
     -7.198  0.0000E+00  0.0000E+00  0.0000E+00
     -7.118  0.0000E+00  0.0000E+00  0.0000E+00
     -7.037  0.0000E+00  0.0000E+00  0.0000E+00
     -6.957  0.0000E+00  0.0000E+00  0.0000E+00
     -6.876  0.0000E+00  0.0000E+00  0.0000E+00
     -6.796  0.0000E+00  0.0000E+00  0.0000E+00
     -6.715  0.0000E+00  0.0000E+00  0.0000E+00
     -6.635  0.0000E+00  0.0000E+00  0.0000E+00
     -6.555  0.0000E+00  0.0000E+00  0.0000E+00
     -6.474  0.0000E+00  0.0000E+00  0.0000E+00
     -6.394  0.0000E+00  0.0000E+00  0.0000E+00
     -6.313  0.0000E+00  0.0000E+00  0.0000E+00
     -6.233  0.5954E-14  0.2086E-28  0.0000E+00
     -6.153  0.2610E-01  0.9144E-16  0.0000E+00
     -6.072  0.0000E+00  0.0000E+00  0.0000E+00
     -5.992  0.0000E+00  0.0000E+00  0.0000E+00
     -5.911  0.0000E+00  0.0000E+00  0.0000E+00
     -5.831  0.1459E-01  0.2658E-03  0.0000E+00
     -5.750  0.1926E+00  0.3509E-02  0.0000E+00
     -5.670  0.1548E+00  0.3906E-02  0.0000E+00
     -5.590  0.0000E+00  0.0000E+00  0.0000E+00
     -5.509  0.0000E+00  0.0000E+00  0.0000E+00
     -5.429  0.0000E+00  0.0000E+00  0.0000E+00
     -5.348  0.0000E+00  0.0000E+00  0.0000E+00
     -5.268  0.5015E-07  0.2348E-08  0.0000E+00
     -5.187  0.3078E+00  0.1441E-01  0.0000E+00
     -5.107  0.0000E+00  0.0000E+00  0.0000E+00
     -5.027  0.0000E+00  0.0000E+00  0.0000E+00
     -4.946  0.0000E+00  0.0000E+00  0.0000E+00
     -4.866  0.6043E+00  0.3896E-01  0.0000E+00
     -4.785  0.2054E+00  0.1234E-01  0.0000E+00
     -4.705  0.0000E+00  0.0000E+00  0.0000E+00
     -4.624  0.0000E+00  0.0000E+00  0.0000E+00
     -4.544  0.0000E+00  0.0000E+00  0.0000E+00
     -4.464  0.0000E+00  0.0000E+00  0.0000E+00
     -4.383  0.0000E+00  0.0000E+00  0.0000E+00
     -4.303  0.2212E-04  0.2255E-05  0.0000E+00
     -4.222  0.1498E+00  0.1528E-01  0.0000E+00
     -4.142  0.0000E+00  0.0000E+00  0.0000E+00
     -4.062  0.5885E+00  0.5101E-01  0.0000E+00
     -3.981  0.0000E+00  0.0000E+00  0.0000E+00
     -3.901  0.4604E-01  0.5024E-02  0.0000E+00
     -3.820  0.6730E+00  0.6802E-01  0.0000E+00
     -3.740  0.6422E-14  0.5670E-15  0.0000E+00
     -3.659  0.6391E+00  0.5643E-01  0.0000E+00
     -3.579  0.0000E+00  0.0000E+00  0.0000E+00
     -3.499  0.0000E+00  0.0000E+00  0.0000E+00
     -3.418  0.0000E+00  0.0000E+00  0.0000E+00
     -3.338  0.0000E+00  0.0000E+00  0.0000E+00
     -3.257  0.0000E+00  0.0000E+00  0.0000E+00
     -3.177  0.0000E+00  0.0000E+00  0.0000E+00
     -3.096  0.5902E+00  0.9044E-01  0.0000E+00
     -3.016  0.0000E+00  0.0000E+00  0.0000E+00
     -2.936  0.1543E-03  0.1997E-04  0.0000E+00
     -2.855  0.9517E+00  0.1209E+00  0.0000E+00
     -2.775  0.0000E+00  0.0000E+00  0.0000E+00
     -2.694  0.0000E+00  0.0000E+00  0.0000E+00
     -2.614  0.0000E+00  0.0000E+00  0.0000E+00
     -2.534  0.0000E+00  0.0000E+00  0.0000E+00
     -2.453  0.0000E+00  0.0000E+00  0.0000E+00
     -2.373  0.0000E+00  0.0000E+00  0.0000E+00
     -2.292  0.0000E+00  0.0000E+00  0.0000E+00
     -2.212  0.0000E+00  0.0000E+00  0.0000E+00
     -2.131  0.0000E+00  0.0000E+00  0.0000E+00
     -2.051  0.4779E-02  0.1118E-02  0.0000E+00
     -1.971  0.1377E+00  0.3222E-01  0.0000E+00
     -1.890  0.0000E+00  0.0000E+00  0.0000E+00
     -1.810  0.0000E+00  0.0000E+00  0.0000E+00
     -1.729  0.0000E+00  0.0000E+00  0.0000E+00
     -1.649  0.0000E+00  0.0000E+00  0.0000E+00
     -1.568  0.0000E+00  0.0000E+00  0.0000E+00
     -1.488  0.0000E+00  0.0000E+00  0.0000E+00
     -1.408  0.0000E+00  0.0000E+00  0.0000E+00
     -1.327  0.0000E+00  0.0000E+00  0.0000E+00
     -1.247  0.2891E-06  0.2778E-06  0.0000E+00
     -1.166  0.4792E-01  0.4605E-01  0.0000E+00
     -1.086  0.8481E-02  0.3413E-02  0.0000E+00
     -1.005  0.4984E+00  0.1997E+00  0.0000E+00
     -0.925  0.2401E+00  0.8523E-01  0.0000E+00
     -0.845  0.1793E+00  0.1289E+00  0.0000E+00
     -0.764  0.5470E+00  0.1779E+00  0.0000E+00
     -0.684  0.0000E+00  0.0000E+00  0.0000E+00
     -0.603  0.0000E+00  0.0000E+00  0.0000E+00
     -0.523  0.0000E+00  0.0000E+00  0.0000E+00
     -0.443  0.0000E+00  0.0000E+00  0.0000E+00
     -0.362  0.0000E+00  0.0000E+00  0.0000E+00
     -0.282  0.1037E-07  0.7404E-08  0.0000E+00
     -0.201  0.3705E+00  0.2646E+00  0.0000E+00
     -0.121  0.0000E+00  0.0000E+00  0.0000E+00
     -0.040  0.0000E+00  0.0000E+00  0.0000E+00
      0.040  0.0000E+00  0.0000E+00  0.0000E+00
      0.120  0.4151E-01  0.1842E-01  0.0000E+00
      0.201  0.4610E+00  0.2046E+00  0.0000E+00
      0.281  0.0000E+00  0.0000E+00  0.0000E+00
      0.362  0.0000E+00  0.0000E+00  0.0000E+00
      0.442  0.1027E+00  0.1006E+00  0.0000E+00
      0.523  0.0000E+00  0.0000E+00  0.0000E+00
      0.603  0.0000E+00  0.0000E+00  0.0000E+00
      0.683  0.0000E+00  0.0000E+00  0.0000E+00
      0.764  0.7623E-01  0.3409E-01  0.0000E+00
      0.844  0.0000E+00  0.0000E+00  0.0000E+00
      0.925  0.0000E+00  0.0000E+00  0.0000E+00
      1.005  0.0000E+00  0.0000E+00  0.0000E+00
      1.086  0.0000E+00  0.0000E+00  0.0000E+00
      1.166  0.0000E+00  0.0000E+00  0.0000E+00
      1.246  0.0000E+00  0.0000E+00  0.0000E+00
      1.327  0.1463E+00  0.2033E+00  0.0000E+00
      1.407  0.2352E+00  0.3232E+00  0.0000E+00
      1.488  0.0000E+00  0.0000E+00  0.0000E+00
      1.568  0.0000E+00  0.0000E+00  0.0000E+00
      1.648  0.0000E+00  0.0000E+00  0.0000E+00
      1.729  0.6112E-02  0.4482E-01  0.0000E+00
      1.809  0.5384E-01  0.3948E+00  0.0000E+00
      1.890  0.0000E+00  0.0000E+00  0.0000E+00
      1.970  0.0000E+00  0.0000E+00  0.0000E+00
      2.051  0.1131E+00  0.1027E+00  0.0000E+00
      2.131  0.1609E-01  0.4551E+00  0.0000E+00
      2.211  0.3510E-01  0.4671E+00  0.0000E+00
      2.292  0.0000E+00  0.0000E+00  0.0000E+00
      2.372  0.0000E+00  0.0000E+00  0.0000E+00
      2.453  0.0000E+00  0.0000E+00  0.0000E+00
      2.533  0.0000E+00  0.0000E+00  0.0000E+00
      2.614  0.0000E+00  0.0000E+00  0.0000E+00
      2.694  0.2774E-02  0.1216E-01  0.0000E+00
      2.774  0.1012E+00  0.4436E+00  0.0000E+00
      2.855  0.0000E+00  0.0000E+00  0.0000E+00
      2.935  0.1356E-10  0.1412E+00  0.0000E+00
      3.016  0.1304E+00  0.9785E+00  0.0000E+00
      3.096  0.0000E+00  0.0000E+00  0.0000E+00
      3.177  0.5564E-25  0.1691E-09  0.0000E+00
      3.257  0.1932E-15  0.5872E+00  0.0000E+00
      3.337  0.3704E-02  0.5349E-01  0.0000E+00
      3.418  0.8980E-01  0.6270E+00  0.0000E+00
      3.498  0.1315E-01  0.5432E+00  0.0000E+00
      3.579  0.0000E+00  0.0000E+00  0.0000E+00
      3.659  0.8014E-16  0.7638E-01  0.0000E+00
      3.739  0.9011E-01  0.3160E+00  0.0000E+00
      3.820  0.1006E+00  0.4970E+00  0.0000E+00
      3.900  0.0000E+00  0.0000E+00  0.0000E+00
      3.981  0.4932E-16  0.2130E-02  0.0000E+00
      4.061  0.1487E-13  0.1203E+01  0.0000E+00
      4.142  0.0000E+00  0.0000E+00  0.0000E+00
      4.222  0.0000E+00  0.0000E+00  0.0000E+00
      4.302  0.0000E+00  0.0000E+00  0.0000E+00
      4.383  0.0000E+00  0.0000E+00  0.0000E+00
      4.463  0.3655E-18  0.4526E-02  0.0000E+00
      4.544  0.5053E-16  0.6256E+00  0.0000E+00
      4.624  0.6736E-15  0.5122E+00  0.0000E+00
      4.705  0.0000E+00  0.0000E+00  0.0000E+00
      4.785  0.9334E-17  0.3617E+00  0.0000E+00
      4.865  0.0000E+00  0.0000E+00  0.0000E+00
      4.946  0.0000E+00  0.0000E+00  0.0000E+00
      5.026  0.0000E+00  0.0000E+00  0.0000E+00
      5.107  0.0000E+00  0.0000E+00  0.0000E+00
      5.187  0.3151E-19  0.2240E-04  0.0000E+00
      5.268  0.4580E-15  0.3256E+00  0.0000E+00
      5.348  0.1462E-15  0.4194E+00  0.0000E+00
      5.428  0.0000E+00  0.0000E+00  0.0000E+00
      5.509  0.0000E+00  0.0000E+00  0.0000E+00
      5.589  0.0000E+00  0.0000E+00  0.0000E+00
      5.670  0.0000E+00  0.0000E+00  0.0000E+00
      5.750  0.5747E-17  0.6655E-05  0.0000E+00
      5.830  0.6902E-13  0.7993E-01  0.0000E+00
      5.911  0.0000E+00  0.0000E+00  0.0000E+00
      5.991  0.0000E+00  0.0000E+00  0.0000E+00
      6.072  0.0000E+00  0.0000E+00  0.0000E+00
      6.152  0.0000E+00  0.0000E+00  0.0000E+00
      6.233  0.0000E+00  0.0000E+00  0.0000E+00
      6.313  0.0000E+00  0.0000E+00  0.0000E+00
      6.393  0.4276E-01  0.3029E-01  0.0000E+00
      6.474  0.3353E-01  0.3697E-01  0.0000E+00
      6.554  0.0000E+00  0.0000E+00  0.0000E+00
      6.635  0.0000E+00  0.0000E+00  0.0000E+00
      6.715  0.6518E-03  0.5581E-03  0.0000E+00
      6.796  0.1485E+00  0.1272E+00  0.0000E+00
      6.876  0.0000E+00  0.0000E+00  0.0000E+00
      6.956  0.0000E+00  0.0000E+00  0.0000E+00
      7.037  0.0000E+00  0.0000E+00  0.0000E+00
      7.117  0.0000E+00  0.0000E+00  0.0000E+00
      7.198  0.2365E-01  0.2368E-02  0.0000E+00
      7.278  0.1486E+00  0.7381E-01  0.0000E+00
      7.359  0.2093E-11  0.7035E-11  0.0000E+00
      7.439  0.1740E+00  0.1023E+00  0.0000E+00
      7.519  0.0000E+00  0.0000E+00  0.0000E+00
      7.600  0.2658E-16  0.5769E-16  0.0000E+00
      7.680  0.1517E+00  0.2825E+00  0.0000E+00
      7.761  0.1869E+00  0.1753E+00  0.0000E+00
      7.841  0.0000E+00  0.0000E+00  0.0000E+00
      7.921  0.0000E+00  0.0000E+00  0.0000E+00
      8.002  0.2558E-06  0.1436E-06  0.0000E+00
      8.082  0.1266E+00  0.7105E-01  0.0000E+00
      8.163  0.2409E+00  0.1880E+00  0.0000E+00
      8.243  0.1974E-25  0.1066E-14  0.0000E+00
      8.324  0.1040E-11  0.5615E-01  0.0000E+00
      8.404  0.7226E-01  0.1529E+00  0.0000E+00
      8.484  0.0000E+00  0.0000E+00  0.0000E+00
      8.565  0.8538E-01  0.2978E+00  0.0000E+00
      8.645  0.0000E+00  0.0000E+00  0.0000E+00
      8.726  0.2413E-02  0.2300E-02  0.0000E+00
      8.806  0.1402E+00  0.1337E+00  0.0000E+00
      8.887  0.2889E-27  0.1861E-15  0.0000E+00
      8.967  0.4332E-03  0.3047E+00  0.0000E+00
      9.047  0.6218E-01  0.2009E+00  0.0000E+00
      9.128  0.2486E-12  0.9249E-01  0.0000E+00
      9.208  0.8745E-10  0.4175E-04  0.0000E+00
      9.289  0.1836E+00  0.6154E+00  0.0000E+00
      9.369  0.1906E-04  0.5414E-04  0.0000E+00
      9.450  0.6223E-01  0.1768E+00  0.0000E+00
      9.530  0.2800E-02  0.1111E-01  0.0000E+00
      9.610  0.4258E-01  0.1689E+00  0.0000E+00
      9.691  0.0000E+00  0.0000E+00  0.0000E+00
      9.771  0.2117E+00  0.2454E+00  0.0000E+00
      9.852  0.3121E+00  0.5903E+00  0.0000E+00
      9.932  0.7380E-01  0.1218E+00  0.0000E+00
     10.012  0.1987E+00  0.5791E+00  0.0000E+00
     10.093  0.8955E-08  0.2462E+00  0.0000E+00
     10.173  0.1946E-12  0.8100E-12  0.0000E+00
     10.254  0.6937E-01  0.2888E+00  0.0000E+00
     10.334  0.8806E-10  0.1779E-01  0.0000E+00
     10.415  0.1495E-08  0.3020E+00  0.0000E+00
     10.495  0.0000E+00  0.0000E+00  0.0000E+00
     10.575  0.0000E+00  0.0000E+00  0.0000E+00
     10.656  0.0000E+00  0.0000E+00  0.0000E+00
     10.736  0.0000E+00  0.0000E+00  0.0000E+00
     10.817  0.4366E-08  0.4145E+00  0.0000E+00
     10.897  0.0000E+00  0.0000E+00  0.0000E+00
     10.978  0.0000E+00  0.0000E+00  0.0000E+00
     11.058  0.7495E-07  0.5344E-07  0.0000E+00
     11.138  0.1643E+00  0.1172E+00  0.0000E+00
     11.219  0.0000E+00  0.0000E+00  0.0000E+00
     11.299  0.2993E-04  0.4181E-04  0.0000E+00
     11.380  0.1020E+00  0.1425E+00  0.0000E+00
     11.460  0.1326E-04  0.1764E-03  0.0000E+00
     11.541  0.8588E-02  0.1142E+00  0.0000E+00
     11.621  0.0000E+00  0.0000E+00  0.0000E+00
     11.701  0.0000E+00  0.0000E+00  0.0000E+00
     11.782  0.2113E-01  0.9615E-01  0.0000E+00
     11.862  0.3510E-01  0.1597E+00  0.0000E+00
     11.943  0.0000E+00  0.0000E+00  0.0000E+00
     12.023  0.0000E+00  0.0000E+00  0.0000E+00
     12.103  0.3627E-01  0.1831E+00  0.0000E+00
     12.184  0.8758E-04  0.6404E-01  0.0000E+00
     12.264  0.9892E-01  0.5286E+00  0.0000E+00
     12.345  0.0000E+00  0.0000E+00  0.0000E+00
     12.425  0.0000E+00  0.0000E+00  0.0000E+00
     12.506  0.0000E+00  0.0000E+00  0.0000E+00
     12.586  0.0000E+00  0.0000E+00  0.0000E+00
     12.666  0.0000E+00  0.0000E+00  0.0000E+00
     12.747  0.1272E-01  0.4069E-01  0.0000E+00
     12.827  0.6970E-01  0.6038E+00  0.0000E+00
     12.908  0.4657E-15  0.1617E-14  0.0000E+00
     12.988  0.9641E-01  0.5764E+00  0.0000E+00
     13.069  0.0000E+00  0.0000E+00  0.0000E+00
     13.149  0.2521E-01  0.1128E+00  0.0000E+00
     13.229  0.9607E-01  0.6890E+00  0.0000E+00
     13.310  0.3025E-02  0.2558E-01  0.0000E+00
     13.390  0.0000E+00  0.0000E+00  0.0000E+00
     13.471  0.1409E-01  0.1186E+00  0.0000E+00
     13.551  0.0000E+00  0.0000E+00  0.0000E+00
     13.632  0.0000E+00  0.0000E+00  0.0000E+00
     13.712  0.0000E+00  0.0000E+00  0.0000E+00
     13.792  0.0000E+00  0.0000E+00  0.0000E+00
     13.873  0.0000E+00  0.0000E+00  0.0000E+00
     13.953  0.0000E+00  0.0000E+00  0.0000E+00
     14.034  0.0000E+00  0.0000E+00  0.0000E+00
     14.114  0.0000E+00  0.0000E+00  0.0000E+00
     14.194  0.0000E+00  0.0000E+00  0.0000E+00
     14.275  0.0000E+00  0.0000E+00  0.0000E+00
     14.355  0.0000E+00  0.0000E+00  0.0000E+00
     14.436  0.0000E+00  0.0000E+00  0.0000E+00
     14.516  0.0000E+00  0.0000E+00  0.0000E+00
     14.597  0.0000E+00  0.0000E+00  0.0000E+00
     14.677  0.0000E+00  0.0000E+00  0.0000E+00
     14.757  0.0000E+00  0.0000E+00  0.0000E+00
     14.838  0.0000E+00  0.0000E+00  0.0000E+00
     14.918  0.0000E+00  0.0000E+00  0.0000E+00
     14.999  0.0000E+00  0.0000E+00  0.0000E+00
     15.079  0.0000E+00  0.0000E+00  0.0000E+00
     15.160  0.0000E+00  0.0000E+00  0.0000E+00
     15.240  0.0000E+00  0.0000E+00  0.0000E+00
     15.320  0.0000E+00  0.0000E+00  0.0000E+00
     15.401  0.0000E+00  0.0000E+00  0.0000E+00
     15.481  0.0000E+00  0.0000E+00  0.0000E+00
     15.562  0.0000E+00  0.0000E+00  0.0000E+00
     15.642  0.0000E+00  0.0000E+00  0.0000E+00
     15.723  0.3595E-10  0.3709E-05  0.0000E+00
     15.803  0.1910E-05  0.1777E+00  0.0000E+00
     15.883  0.0000E+00  0.0000E+00  0.0000E+00
     15.964  0.0000E+00  0.0000E+00  0.0000E+00
     16.044  0.0000E+00  0.0000E+00  0.0000E+00
     16.125  0.0000E+00  0.0000E+00  0.0000E+00
     16.205  0.0000E+00  0.0000E+00  0.0000E+00
     16.285  0.0000E+00  0.0000E+00  0.0000E+00
     16.366  0.0000E+00  0.0000E+00  0.0000E+00
     16.446  0.0000E+00  0.0000E+00  0.0000E+00
     16.527  0.0000E+00  0.0000E+00  0.0000E+00
     16.607  0.0000E+00  0.0000E+00  0.0000E+00
     16.688  0.0000E+00  0.0000E+00  0.0000E+00
     16.768  0.0000E+00  0.0000E+00  0.0000E+00
     16.848  0.0000E+00  0.0000E+00  0.0000E+00
     16.84844327     -7.27845801  301      5.85059744      1.00000000
     -7.278  0.0000E+00  0.0000E+00  0.0000E+00
     -7.198  0.0000E+00  0.0000E+00  0.0000E+00
     -7.118  0.0000E+00  0.0000E+00  0.0000E+00
     -7.037  0.0000E+00  0.0000E+00  0.0000E+00
     -6.957  0.0000E+00  0.0000E+00  0.0000E+00
     -6.876  0.0000E+00  0.0000E+00  0.0000E+00
     -6.796  0.0000E+00  0.0000E+00  0.0000E+00
     -6.715  0.0000E+00  0.0000E+00  0.0000E+00
     -6.635  0.0000E+00  0.0000E+00  0.0000E+00
     -6.555  0.0000E+00  0.0000E+00  0.0000E+00
     -6.474  0.0000E+00  0.0000E+00  0.0000E+00
     -6.394  0.0000E+00  0.0000E+00  0.0000E+00
     -6.313  0.0000E+00  0.0000E+00  0.0000E+00
     -6.233  0.5954E-14  0.3154E-28  0.0000E+00
     -6.153  0.2610E-01  0.1382E-15  0.0000E+00
     -6.072  0.0000E+00  0.0000E+00  0.0000E+00
     -5.992  0.0000E+00  0.0000E+00  0.0000E+00
     -5.911  0.0000E+00  0.0000E+00  0.0000E+00
     -5.831  0.1459E-01  0.2658E-03  0.0000E+00
     -5.750  0.1926E+00  0.3509E-02  0.0000E+00
     -5.670  0.1548E+00  0.3906E-02  0.0000E+00
     -5.590  0.0000E+00  0.0000E+00  0.0000E+00
     -5.509  0.0000E+00  0.0000E+00  0.0000E+00
     -5.429  0.0000E+00  0.0000E+00  0.0000E+00
     -5.348  0.0000E+00  0.0000E+00  0.0000E+00
     -5.268  0.5015E-07  0.2348E-08  0.0000E+00
     -5.187  0.3078E+00  0.1441E-01  0.0000E+00
     -5.107  0.0000E+00  0.0000E+00  0.0000E+00
     -5.027  0.0000E+00  0.0000E+00  0.0000E+00
     -4.946  0.0000E+00  0.0000E+00  0.0000E+00
     -4.866  0.6043E+00  0.3896E-01  0.0000E+00
     -4.785  0.2054E+00  0.1234E-01  0.0000E+00
     -4.705  0.0000E+00  0.0000E+00  0.0000E+00
     -4.624  0.0000E+00  0.0000E+00  0.0000E+00
     -4.544  0.0000E+00  0.0000E+00  0.0000E+00
     -4.464  0.0000E+00  0.0000E+00  0.0000E+00
     -4.383  0.0000E+00  0.0000E+00  0.0000E+00
     -4.303  0.2212E-04  0.2255E-05  0.0000E+00
     -4.222  0.1498E+00  0.1528E-01  0.0000E+00
     -4.142  0.0000E+00  0.0000E+00  0.0000E+00
     -4.062  0.5885E+00  0.5101E-01  0.0000E+00
     -3.981  0.0000E+00  0.0000E+00  0.0000E+00
     -3.901  0.4604E-01  0.5024E-02  0.0000E+00
     -3.820  0.6730E+00  0.6802E-01  0.0000E+00
     -3.740  0.6422E-14  0.5670E-15  0.0000E+00
     -3.659  0.6391E+00  0.5643E-01  0.0000E+00
     -3.579  0.0000E+00  0.0000E+00  0.0000E+00
     -3.499  0.0000E+00  0.0000E+00  0.0000E+00
     -3.418  0.0000E+00  0.0000E+00  0.0000E+00
     -3.338  0.0000E+00  0.0000E+00  0.0000E+00
     -3.257  0.0000E+00  0.0000E+00  0.0000E+00
     -3.177  0.0000E+00  0.0000E+00  0.0000E+00
     -3.096  0.5902E+00  0.9044E-01  0.0000E+00
     -3.016  0.0000E+00  0.0000E+00  0.0000E+00
     -2.936  0.1543E-03  0.1997E-04  0.0000E+00
     -2.855  0.9517E+00  0.1209E+00  0.0000E+00
     -2.775  0.0000E+00  0.0000E+00  0.0000E+00
     -2.694  0.0000E+00  0.0000E+00  0.0000E+00
     -2.614  0.0000E+00  0.0000E+00  0.0000E+00
     -2.534  0.0000E+00  0.0000E+00  0.0000E+00
     -2.453  0.0000E+00  0.0000E+00  0.0000E+00
     -2.373  0.0000E+00  0.0000E+00  0.0000E+00
     -2.292  0.0000E+00  0.0000E+00  0.0000E+00
     -2.212  0.0000E+00  0.0000E+00  0.0000E+00
     -2.131  0.0000E+00  0.0000E+00  0.0000E+00
     -2.051  0.4779E-02  0.1118E-02  0.0000E+00
     -1.971  0.1377E+00  0.3222E-01  0.0000E+00
     -1.890  0.0000E+00  0.0000E+00  0.0000E+00
     -1.810  0.0000E+00  0.0000E+00  0.0000E+00
     -1.729  0.0000E+00  0.0000E+00  0.0000E+00
     -1.649  0.0000E+00  0.0000E+00  0.0000E+00
     -1.568  0.0000E+00  0.0000E+00  0.0000E+00
     -1.488  0.0000E+00  0.0000E+00  0.0000E+00
     -1.408  0.0000E+00  0.0000E+00  0.0000E+00
     -1.327  0.0000E+00  0.0000E+00  0.0000E+00
     -1.247  0.2891E-06  0.2778E-06  0.0000E+00
     -1.166  0.4792E-01  0.4605E-01  0.0000E+00
     -1.086  0.8481E-02  0.3413E-02  0.0000E+00
     -1.005  0.4984E+00  0.1997E+00  0.0000E+00
     -0.925  0.2401E+00  0.8523E-01  0.0000E+00
     -0.845  0.1793E+00  0.1289E+00  0.0000E+00
     -0.764  0.5470E+00  0.1779E+00  0.0000E+00
     -0.684  0.0000E+00  0.0000E+00  0.0000E+00
     -0.603  0.0000E+00  0.0000E+00  0.0000E+00
     -0.523  0.0000E+00  0.0000E+00  0.0000E+00
     -0.443  0.0000E+00  0.0000E+00  0.0000E+00
     -0.362  0.0000E+00  0.0000E+00  0.0000E+00
     -0.282  0.1037E-07  0.7404E-08  0.0000E+00
     -0.201  0.3705E+00  0.2646E+00  0.0000E+00
     -0.121  0.0000E+00  0.0000E+00  0.0000E+00