    2    2    1    1
  0.2002393E+02  0.3840297E-09  0.3840297E-09  0.3840297E-09  0.5000000E-15
  1.000000000000000E-004
  CAR 
 Name                                    
      8    299      8
 
  0.0000000E+00  0.0000000E+00  0.0000000E+00  0.4901961E-02
    1       -6.181781   1.000000
    2        5.776692   1.000000
    3        5.776692   1.000000
    4        5.776692   1.000000
    5        8.296693   0.000000
    6        8.296693   0.000000
    7        8.296693   0.000000
    8        8.983474   0.000000
 
  0.1666667E+00  0.0000000E+00  0.0000000E+00  0.3921569E-01
    1       -5.820430   1.000000
    2        3.379793   1.000000
    3        5.325482   1.000000
    4        5.325482   1.000000
    5        8.034505   0.000000
    6        8.943160   0.000000
    7        8.943160   0.000000
    8       11.092704   0.000000
 
  0.3333333E+00  0.0000000E+00  0.0000000E+00  0.3921569E-01
    1       -4.803316   1.000000
    2        0.424724   1.000000
    3        4.777655   1.000000
    4        4.777655   1.000000
    5        7.430393   0.000000
    6        9.233449   0.000000
    7        9.233449   0.000000
    8       13.449996   0.000000
 
  0.5000000E+00  0.0000000E+00  0.0000000E+00  0.1960784E-01
    1       -3.842898   1.000000
    2       -1.215787   1.000000
    3        4.580873   1.000000
    4        4.580873   1.000000
    5        7.202297   0.000000
    6        9.063763   0.000000
    7        9.063763   0.000000
    8       13.283848   0.000000
 
  0.1666667E+00  0.1666667E+00  0.0000000E+00  0.2941176E-01
    1       -5.697537   1.000000
    2        3.724355   1.000000
    3        4.579709   1.000000
    4        4.579709   1.000000
    5        7.403583   0.000000
    6        9.965692   0.000000
    7       10.073982   0.000000
    8       10.073983   0.000000
 
  0.3333333E+00  0.1666667E+00  0.0000000E+00  0.1176471E+00
    1       -4.881615   1.000000
    2        1.328899   1.000000
    3        3.767853   1.000000
    4        4.027906   1.000000
    5        7.657179   0.000000
    6        9.750742   0.000000
    7       10.222048   0.000000
    8       10.799006   0.000000
 
  0.5000000E+00  0.1666667E+00  0.0000000E+00  0.1176471E+00
    1       -3.685753   1.000000
    2       -0.844678   1.000000
    3        2.980171   1.000000
    4        3.999838   1.000000
    5        7.725253   0.000000
    6        9.804639   0.000000
    7       10.345441   0.000000
    8       12.101718   0.000000
 
 -0.3333333E+00  0.1666667E+00  0.0000000E+00  0.1176471E+00
    1       -4.072771   1.000000
    2       -0.243252   1.000000
    3        2.707655   1.000000
    4        4.480611   1.000000
    5        8.139622   0.000000
    6        9.807179   0.000000
    7        9.953570   0.000000
    8       12.962467   0.000000
 
 -0.1666667E+00  0.1666667E+00  0.0000000E+00  0.5882353E-01
    1       -5.231765   1.000000
    2        2.048432   1.000000
    3        3.343083   1.000000
    4        5.214066   1.000000
    5        8.740725   0.000000
    6        9.287243   0.000000
    7        9.540844   0.000000
    8       11.323564   0.000000
 
  0.3333333E+00  0.3333333E+00  0.0000000E+00  0.2941176E-01
    1       -4.277213   1.000000
    2        0.762224   1.000000
    3        3.356039   1.000000
    4        3.356039   1.000000
    5        6.401847   0.000000
    6        7.659218   0.000000
    7       12.965727   0.000000
    8       12.965730   0.000000
 
  0.5000000E+00  0.3333333E+00  0.0000000E+00  0.1176471E+00
    1       -3.112010   1.000000
    2       -0.788093   1.000000
    3        2.119516   1.000000
    4        3.220351   1.000000
    5        6.733686   0.000000
    6        8.400006   0.000000
    7       13.154740   0.000000
    8       13.159625   0.000000
 
 -0.3333333E+00  0.3333333E+00  0.0000000E+00  0.5882353E-01
    1       -2.912294   1.000000
    2       -0.995297   1.000000
    3        1.328780   1.000000
    4        3.663740   1.000000
    5        7.241221   0.000000
    6       11.481027   0.000000
    7       12.188036   0.000000
    8       12.753045   0.000000
 
  0.5000000E+00  0.5000000E+00  0.0000000E+00  0.1470588E-01
    1       -2.038015   1.000000
    2       -2.038015   1.000000
    3        2.922032   1.000000
    4        2.922032   1.000000
    5        6.375227   0.000000
    6        6.375227   0.000000
    7       15.751262   0.000000
    8       15.751766   0.000000
 
  0.5000000E+00  0.3333333E+00  0.1666667E+00  0.1176471E+00
    1       -3.890546   1.000000
    2        0.130271   1.000000
    3        2.180692   1.000000
    4        3.469288   1.000000
    5        8.548697   0.000000
    6        9.393330   0.000000
    7        9.933890   0.000000
    8       12.765268   0.000000
 
 -0.3333333E+00  0.3333333E+00  0.1666667E+00  0.1176471E+00
    1       -2.901876   1.000000
    2       -1.070962   1.000000
    3        1.737903   1.000000
    4        2.998084   1.000000
    5        9.041705   0.000000
    6        9.251513   0.000000
    7       11.784033   0.000000
    8       12.206036   0.000000
 
  0.0000000E+00  0.0000000E+00  0.0000000E+00  0.0000000E+00
    1       -6.181781   1.000000
    2        5.776692   1.000000
    3        5.776692   1.000000
    4        5.776692   1.000000
    5        8.296693   0.000000
    6        8.296693   0.000000
    7        8.296693   0.000000
    8        8.983474   0.000000
 
  0.1760560E-02  0.0000000E+00  0.1760560E-02  0.0000000E+00
    1       -6.181728   1.000000
    2        5.776303   1.000000
    3        5.776451   1.000000
    4        5.776451   1.000000
    5        8.296550   0.000000
    6        8.297000   0.000000
    7        8.297000   0.000000
    8        8.983855   0.000000
 
  0.3521130E-02  0.0000000E+00  0.3521130E-02  0.0000000E+00
    1       -6.181566   1.000000
    2        5.775139   1.000000
    3        5.775728   1.000000
    4        5.775728   1.000000
    5        8.296119   0.000000
    6        8.297921   0.000000
    7        8.297921   0.000000
    8        8.984999   0.000000
 
  0.5281690E-02  0.0000000E+00  0.5281690E-02  0.0000000E+00
    1       -6.181295   1.000000
    2        5.773201   1.000000
    3        5.774525   1.000000
    4        5.774525   1.000000
    5        8.295401   0.000000
    6        8.299453   0.000000
    7        8.299453   0.000000
    8        8.986902   0.000000
 
  0.7042250E-02  0.0000000E+00  0.7042250E-02  0.0000000E+00
    1       -6.180916   1.000000
    2        5.770491   1.000000
    3        5.772844   1.000000
    4        5.772844   1.000000
    5        8.294396   0.000000
    6        8.301596   0.000000
    7        8.301596   0.000000
    8        8.989562   0.000000
 
  0.8802820E-02  0.0000000E+00  0.8802820E-02  0.0000000E+00
    1       -6.180429   1.000000
    2        5.767014   1.000000
    3        5.770686   1.000000
    4        5.770686   1.000000
    5        8.293106   0.000000
    6        8.304347   0.000000
    7        8.304347   0.000000
    8        8.992975   0.000000
 
  0.1056338E-01  0.0000000E+00  0.1056338E-01  0.0000000E+00
    1       -6.179832   1.000000
    2        5.762776   1.000000
    3        5.768056   1.000000
    4        5.768056   1.000000
    5        8.291530   0.000000
    6        8.307703   0.000000
    7        8.307703   0.000000
    8        8.997133   0.000000
 
  0.1232394E-01  0.0000000E+00  0.1232394E-01  0.0000000E+00
    1       -6.179127   1.000000
    2        5.757781   1.000000
    3        5.764956   1.000000
    4        5.764956   1.000000
    5        8.289671   0.000000
    6        8.311659   0.000000
    7        8.311659   0.000000
    8        9.002031   0.000000
 
  0.1408451E-01  0.0000000E+00  0.1408451E-01  0.0000000E+00
    1       -6.178314   1.000000
    2        5.752038   1.000000
    3        5.761393   1.000000
    4        5.761393   1.000000
    5        8.287528   0.000000
    6        8.316211   0.000000
    7        8.316211   0.000000
    8        9.007660   0.000000
 
  0.1584507E-01  0.0000000E+00  0.1584507E-01  0.0000000E+00
    1       -6.177391   1.000000
    2        5.745555   1.000000
    3        5.757370   1.000000
    4        5.757370   1.000000
    5        8.285104   0.000000
    6        8.321354   0.000000
    7        8.321354   0.000000
    8        9.014010   0.000000
 
  0.1760563E-01  0.0000000E+00  0.1760563E-01  0.0000000E+00
    1       -6.176360   1.000000
    2        5.738340   1.000000
    3        5.752893   1.000000
    4        5.752893   1.000000
    5        8.282400   0.000000
    6        8.327081   0.000000
    7        8.327081   0.000000
    8        9.021071   0.000000
 
  0.1936620E-01  0.0000000E+00  0.1936620E-01  0.0000000E+00
    1       -6.175221   1.000000
    2        5.730405   1.000000
    3        5.747970   1.000000
    4        5.747970   1.000000
    5        8.279418   0.000000
    6        8.333387   0.000000
    7        8.333387   0.000000
    8        9.028832   0.000000
 
  0.2112676E-01  0.0000000E+00  0.2112676E-01  0.0000000E+00
    1       -6.173973   1.000000
    2        5.721760   1.000000
    3        5.742607   1.000000
    4        5.742607   1.000000
    5        8.276160   0.000000
    6        8.340265   0.000000
    7        8.340265   0.000000
    8        9.037280   0.000000
 
  0.2288732E-01  0.0000000E+00  0.2288732E-01  0.0000000E+00
    1       -6.172616   1.000000
    2        5.712416   1.000000
    3        5.736811   1.000000
    4        5.736811   1.000000
    5        8.272627   0.000000
    6        8.347707   0.000000
    7        8.347707   0.000000
    8        9.046402   0.000000
 
  0.2464789E-01  0.0000000E+00  0.2464789E-01  0.0000000E+00
    1       -6.171151   1.000000
    2        5.702386   1.000000
    3        5.730590   1.000000
    4        5.730590   1.000000
    5        8.268823   0.000000
    6        8.355705   0.000000
    7        8.355705   0.000000
    8        9.056183   0.000000
 
  0.2640845E-01  0.0000000E+00  0.2640845E-01  0.0000000E+00
    1       -6.169577   1.000000
    2        5.691683   1.000000
    3        5.723953   1.000000
    4        5.723953   1.000000
    5        8.264749   0.000000
    6        8.364251   0.000000
    7        8.364251   0.000000
    8        9.066610   0.000000
 
  0.2816902E-01  0.0000000E+00  0.2816902E-01  0.0000000E+00
    1       -6.167896   1.000000
    2        5.680315   1.000000
    3        5.716908   1.000000
    4        5.716908   1.000000
    5        8.260405   0.000000
    6        8.373336   0.000000
    7        8.373336   0.000000
    8        9.077664   0.000000
 
  0.2992958E-01  0.0000000E+00  0.2992958E-01  0.0000000E+00
    1       -6.166105   1.000000
    2        5.668306   1.000000
    3        5.709465   1.000000
    4        5.709465   1.000000
    5        8.255801   0.000000
    6        8.382951   0.000000
    7        8.382951   0.000000
    8        9.089331   0.000000
 
  0.3169014E-01  0.0000000E+00  0.3169014E-01  0.0000000E+00
    1       -6.164205   1.000000
    2        5.655665   1.000000
    3        5.701632   1.000000
    4        5.701632   1.000000
    5        8.250934   0.000000
    6        8.393088   0.000000
    7        8.393088   0.000000
    8        9.101594   0.000000
 
  0.3345070E-01  0.0000000E+00  0.3345070E-01  0.0000000E+00
    1       -6.162197   1.000000
    2        5.642407   1.000000
    3        5.693418   1.000000
    4        5.693418   1.000000
    5        8.245810   0.000000
    6        8.403735   0.000000
    7        8.403735   0.000000
    8        9.114436   0.000000
 
  0.3521127E-01  0.0000000E+00  0.3521127E-01  0.0000000E+00
    1       -6.160084   1.000000
    2        5.628532   1.000000
    3        5.684830   1.000000
    4        5.684830   1.000000
    5        8.240423   0.000000
    6        8.414880   0.000000
    7        8.414880   0.000000
    8        9.127830   0.000000
 
  0.3697183E-01  0.0000000E+00  0.3697183E-01  0.0000000E+00
    1       -6.157859   1.000000
    2        5.614085   1.000000
    3        5.675885   1.000000
    4        5.675885   1.000000
    5        8.234791   0.000000
    6        8.426521   0.000000
    7        8.426521   0.000000
    8        9.141774   0.000000
 
  0.3873239E-01  0.0000000E+00  0.3873239E-01  0.0000000E+00
    1       -6.155525   1.000000
    2        5.599065   1.000000
    3        5.666590   1.000000
    4        5.666590   1.000000
    5        8.228911   0.000000
    6        8.438644   0.000000
    7        8.438644   0.000000
    8        9.156241   0.000000
 
  0.4049296E-01  0.0000000E+00  0.4049296E-01  0.0000000E+00
    1       -6.153083   1.000000
    2        5.583488   1.000000
    3        5.656955   1.000000
    4        5.656955   1.000000
    5        8.222785   0.000000
    6        8.451238   0.000000
    7        8.451238   0.000000
    8        9.171212   0.000000
 
  0.4225352E-01  0.0000000E+00  0.4225352E-01  0.0000000E+00
    1       -6.150532   1.000000
    2        5.567369   1.000000
    3        5.646989   1.000000
    4        5.646989   1.000000
    5        8.216417   0.000000
    6        8.464294   0.000000
    7        8.464294   0.000000
    8        9.186667   0.000000
 
  0.4401409E-01  0.0000000E+00  0.4401409E-01  0.0000000E+00
    1       -6.147872   1.000000
    2        5.550725   1.000000
    3        5.636703   1.000000
    4        5.636703   1.000000
    5        8.209811   0.000000
    6        8.477801   0.000000
    7        8.477801   0.000000
    8        9.202588   0.000000
 
  0.4577465E-01  0.0000000E+00  0.4577465E-01  0.0000000E+00
    1       -6.145104   1.000000
    2        5.533569   1.000000
    3        5.626107   1.000000
    4        5.626107   1.000000
    5        8.202971   0.000000
    6        8.491749   0.000000
    7        8.491749   0.000000
    8        9.218955   0.000000
 
  0.4753521E-01  0.0000000E+00  0.4753521E-01  0.0000000E+00
    1       -6.142228   1.000000
    2        5.515917   1.000000
    3        5.615210   1.000000
    4        5.615210   1.000000
    5        8.195901   0.000000
    6        8.506128   0.000000
    7        8.506128   0.000000
    8        9.235747   0.000000
 
  0.4929578E-01  0.0000000E+00  0.4929578E-01  0.0000000E+00
    1       -6.139247   1.000000
    2        5.497770   1.000000
    3        5.604021   1.000000
    4        5.604021   1.000000
    5        8.188598   0.000000
    6        8.520917   0.000000
    7        8.520917   0.000000
    8        9.252935   0.000000
 
  0.5105634E-01  0.0000000E+00  0.5105634E-01  0.0000000E+00
    1       -6.136154   1.000000
    2        5.479170   1.000000
    3        5.592555   1.000000
    4        5.592555   1.000000
    5        8.181078   0.000000
    6        8.536126   0.000000
    7        8.536126   0.000000
    8        9.270517   0.000000
 
  0.5281691E-01  0.0000000E+00  0.5281691E-01  0.0000000E+00
    1       -6.132952   1.000000
    2        5.460118   1.000000
    3        5.580819   1.000000
    4        5.580819   1.000000
    5        8.173340   0.000000
    6        8.551736   0.000000
    7        8.551736   0.000000
    8        9.288464   0.000000
 
  0.5457747E-01  0.0000000E+00  0.5457747E-01  0.0000000E+00
    1       -6.129642   1.000000
    2        5.440628   1.000000
    3        5.568823   1.000000
    4        5.568823   1.000000
    5        8.165387   0.000000
    6        8.567736   0.000000
    7        8.567736   0.000000
    8        9.306754   0.000000
 
  0.5633803E-01  0.0000000E+00  0.5633803E-01  0.0000000E+00
    1       -6.126224   1.000000
    2        5.420714   1.000000
    3        5.556577   1.000000
    4        5.556577   1.000000
    5        8.157224   0.000000
    6        8.584117   0.000000
    7        8.584117   0.000000
    8        9.325367   0.000000
 
  0.5809860E-01  0.0000000E+00  0.5809860E-01  0.0000000E+00
    1       -6.122697   1.000000
    2        5.400390   1.000000
    3        5.544089   1.000000
    4        5.544089   1.000000
    5        8.148854   0.000000
    6        8.600869   0.000000
    7        8.600869   0.000000
    8        9.344282   0.000000
 
  0.5985916E-01  0.0000000E+00  0.5985916E-01  0.0000000E+00
    1       -6.119062   1.000000
    2        5.379669   1.000000
    3        5.531370   1.000000
    4        5.531370   1.000000
    5        8.140283   0.000000
    6        8.617982   0.000000
    7        8.617982   0.000000
    8        9.363478   0.000000
 
  0.6161972E-01  0.0000000E+00  0.6161972E-01  0.0000000E+00
    1       -6.115319   1.000000
    2        5.358552   1.000000
    3        5.518426   1.000000
    4        5.518426   1.000000
    5        8.131514   0.000000
    6        8.635447   0.000000
    7        8.635447   0.000000
    8        9.382931   0.000000
 
  0.6338029E-01  0.0000000E+00  0.6338029E-01  0.0000000E+00
    1       -6.111467   1.000000
    2        5.337077   1.000000
    3        5.505272   1.000000
    4        5.505272   1.000000
    5        8.122552   0.000000
    6        8.653256   0.000000
    7        8.653256   0.000000
    8        9.402625   0.000000
 
  0.6514085E-01  0.0000000E+00  0.6514085E-01  0.0000000E+00
    1       -6.107504   1.000000
    2        5.315243   1.000000
    3        5.491913   1.000000
    4        5.491913   1.000000
    5        8.113403   0.000000
    6        8.671399   0.000000
    7        8.671399   0.000000
    8        9.422537   0.000000
 
  0.6690141E-01  0.0000000E+00  0.6690141E-01  0.0000000E+00
    1       -6.103436   1.000000
    2        5.293064   1.000000
    3        5.478358   1.000000
    4        5.478358   1.000000
    5        8.104067   0.000000
    6        8.689867   0.000000
    7        8.689867   0.000000
    8        9.442642   0.000000
 
  0.6866197E-01  0.0000000E+00  0.6866197E-01  0.0000000E+00
    1       -6.099260   1.000000
    2        5.270552   1.000000
    3        5.464616   1.000000
    4        5.464616   1.000000
    5        8.094551   0.000000
    6        8.708652   0.000000
    7        8.708652   0.000000
    8        9.462919   0.000000
 
  0.7042254E-01  0.0000000E+00  0.7042254E-01  0.0000000E+00
    1       -6.094976   1.000000
    2        5.247716   1.000000
    3        5.450694   1.000000
    4        5.450694   1.000000
    5        8.084859   0.000000
    6        8.727746   0.000000
    7        8.727746   0.000000
    8        9.483347   0.000000
 
  0.7218310E-01  0.0000000E+00  0.7218310E-01  0.0000000E+00
    1       -6.090583   1.000000
    2        5.224570   1.000000
    3        5.436601   1.000000
    4        5.436602   1.000000
    5        8.074995   0.000000
    6        8.747140   0.000000
    7        8.747140   0.000000
    8        9.503901   0.000000
 
  0.7394367E-01  0.0000000E+00  0.7394367E-01  0.0000000E+00
    1       -6.086083   1.000000
    2        5.201123   1.000000
    3        5.422345   1.000000
    4        5.422346   1.000000
    5        8.064965   0.000000
    6        8.766827   0.000000
    7        8.766827   0.000000
    8        9.524560   0.000000
 
  0.7570423E-01  0.0000000E+00  0.7570423E-01  0.0000000E+00
    1       -6.081475   1.000000
    2        5.177386   1.000000
    3        5.407934   1.000000
    4        5.407934   1.000000
    5        8.054772   0.000000
    6        8.786798   0.000000
    7        8.786798   0.000000
    8        9.545299   0.000000
 
  0.7746479E-01  0.0000000E+00  0.7746479E-01  0.0000000E+00
    1       -6.076758   1.000000
    2        5.153370   1.000000
    3        5.393374   1.000000
    4        5.393374   1.000000
    5        8.044421   0.000000
    6        8.807046   0.000000
    7        8.807046   0.000000
    8        9.566094   0.000000
 
  0.7922535E-01  0.0000000E+00  0.7922535E-01  0.0000000E+00
    1       -6.071934   1.000000
    2        5.129084   1.000000
    3        5.378674   1.000000
    4        5.378674   1.000000
    5        8.033916   0.000000
    6        8.827563   0.000000
    7        8.827563   0.000000
    8        9.586921   0.000000
 
  0.8098592E-01  0.0000000E+00  0.8098592E-01  0.0000000E+00
    1       -6.067002   1.000000
    2        5.104538   1.000000
    3        5.363839   1.000000
    4        5.363839   1.000000
    5        8.023261   0.000000
    6        8.848344   0.000000
    7        8.848344   0.000000
    8        9.607754   0.000000
 
  0.8274648E-01  0.0000000E+00  0.8274648E-01  0.0000000E+00
    1       -6.061965   1.000000
    2        5.079727   1.000000
    3        5.348868   1.000000
    4        5.348868   1.000000
    5        8.012462   0.000000
    6        8.869375   0.000000
    7        8.869375   0.000000
    8        9.628565   0.000000
 
  0.8450705E-01  0.0000000E+00  0.8450705E-01  0.0000000E+00
    1       -6.056817   1.000000
    2        5.054687   1.000000
    3        5.333786   1.000000
    4        5.333786   1.000000
    5        8.001521   0.000000
    6        8.890659   0.000000
    7        8.890659   0.000000
    8        9.649333   0.000000
 
  0.8626761E-01  0.0000000E+00  0.8626761E-01  0.0000000E+00
    1       -6.051562   1.000000
    2        5.029414   1.000000
    3        5.318590   1.000000
    4        5.318590   1.000000
    5        7.990445   0.000000
    6        8.912186   0.000000
    7        8.912186   0.000000
    8        9.670029   0.000000
 
  0.8802817E-01  0.0000000E+00  0.8802817E-01  0.0000000E+00
    1       -6.046201   1.000000
    2        5.003916   1.000000
    3        5.303286   1.000000
    4        5.303286   1.000000
    5        7.979236   0.000000
    6        8.933948   0.000000
    7        8.933948   0.000000
    8        9.690623   0.000000
 
  0.8978874E-01  0.0000000E+00  0.8978874E-01  0.0000000E+00
    1       -6.040732   1.000000
    2        4.978201   1.000000
    3        5.287880   1.000000
    4        5.287880   1.000000
    5        7.967899   0.000000
    6        8.955940   0.000000
    7        8.955941   0.000000
    8        9.711088   0.000000
 
  0.9154930E-01  0.0000000E+00  0.9154930E-01  0.0000000E+00
    1       -6.035156   1.000000
    2        4.952276   1.000000
    3        5.272378   1.000000
    4        5.272378   1.000000
    5        7.956438   0.000000
    6        8.978156   0.000000
    7        8.978156   0.000000
    8        9.731392   0.000000
 
  0.9330986E-01  0.0000000E+00  0.9330986E-01  0.0000000E+00
    1       -6.029472   1.000000
    2        4.926149   1.000000
    3        5.256786   1.000000
    4        5.256786   1.000000
    5        7.944858   0.000000
    6        9.000590   0.000000
    7        9.000590   0.000000
    8        9.751507   0.000000
 
  0.9507043E-01  0.0000000E+00  0.9507043E-01  0.0000000E+00
    1       -6.023680   1.000000
    2        4.899827   1.000000
    3        5.241109   1.000000
    4        5.241109   1.000000
    5        7.933163   0.000000
    6        9.023235   0.000000
    7        9.023235   0.000000
    8        9.771399   0.000000
 
  0.9683099E-01  0.0000000E+00  0.9683099E-01  0.0000000E+00
    1       -6.017781   1.000000
    2        4.873318   1.000000
    3        5.225353   1.000000
    4        5.225353   1.000000
    5        7.921356   0.000000
    6        9.046088   0.000000
    7        9.046088   0.000000
    8        9.791036   0.000000
 
  0.9859155E-01  0.0000000E+00  0.9859155E-01  0.0000000E+00
    1       -6.011774   1.000000
    2        4.846627   1.000000
    3        5.209523   1.000000
    4        5.209523   1.000000
    5        7.909442   0.000000
    6        9.069141   0.000000
    7        9.069141   0.000000
    8        9.810385   0.000000
 
  0.1003521E+00  0.0000000E+00  0.1003521E+00  0.0000000E+00
    1       -6.005660   1.000000
    2        4.819762   1.000000
    3        5.193623   1.000000
    4        5.193623   1.000000
    5        7.897425   0.000000
    6        9.092391   0.000000
    7        9.092391   0.000000
    8        9.829410   0.000000
 
  0.1021127E+00  0.0000000E+00  0.1021127E+00  0.0000000E+00
    1       -5.999438   1.000000
    2        4.792728   1.000000
    3        5.177659   1.000000
    4        5.177659   1.000000
    5        7.885308   0.000000
    6        9.115832   0.000000
    7        9.115832   0.000000
    8        9.848075   0.000000
 
  0.1038733E+00  0.0000000E+00  0.1038733E+00  0.0000000E+00
    1       -5.993109   1.000000
    2        4.765531   1.000000
    3        5.161635   1.000000
    4        5.161635   1.000000
    5        7.873097   0.000000
    6        9.139460   0.000000
    7        9.139460   0.000000
    8        9.866343   0.000000
 
  0.1056338E+00  0.0000000E+00  0.1056338E+00  0.0000000E+00
    1       -5.986672   1.000000
    2        4.738178   1.000000
    3        5.145556   1.000000
    4        5.145556   1.000000
    5        7.860794   0.000000
    6        9.163269   0.000000
    7        9.163269   0.000000
    8        9.884175   0.000000
 
  0.1073944E+00  0.0000000E+00  0.1073944E+00  0.0000000E+00
    1       -5.980128   1.000000
    2        4.710673   1.000000
    3        5.129426   1.000000
    4        5.129426   1.000000
    5        7.848403   0.000000
    6        9.187255   0.000000
    7        9.187255   0.000000
    8        9.901531   0.000000
 
  0.1091549E+00  0.0000000E+00  0.1091549E+00  0.0000000E+00
    1       -5.973477   1.000000
    2        4.683023   1.000000
    3        5.113250   1.000000
    4        5.113250   1.000000
    5        7.835929   0.000000
    6        9.211414   0.000000
    7        9.211414   0.000000
    8        9.918373   0.000000
 
  0.1109155E+00  0.0000000E+00  0.1109155E+00  0.0000000E+00
    1       -5.966718   1.000000
    2        4.655231   1.000000
    3        5.097031   1.000000
    4        5.097031   1.000000
    5        7.823375   0.000000
    6        9.235742   0.000000
    7        9.235742   0.000000
    8        9.934657   0.000000
 
  0.1126761E+00  0.0000000E+00  0.1126761E+00  0.0000000E+00
    1       -5.959853   1.000000
    2        4.627304   1.000000
    3        5.080773   1.000000
    4        5.080773   1.000000
    5        7.810744   0.000000
    6        9.260234   0.000000
    7        9.260234   0.000000
    8        9.950342   0.000000
 
  0.1144366E+00  0.0000000E+00  0.1144366E+00  0.0000000E+00
    1       -5.952880   1.000000
    2        4.599245   1.000000
    3        5.064481   1.000000
    4        5.064481   1.000000
    5        7.798041   0.000000
    6        9.284886   0.000000
    7        9.284886   0.000000
    8        9.965384   0.000000
 
  0.1161972E+00  0.0000000E+00  0.1161972E+00  0.0000000E+00
    1       -5.945800   1.000000
    2        4.571060   1.000000
    3        5.048157   1.000000
    4        5.048157   1.000000
    5        7.785269   0.000000
    6        9.309695   0.000000
    7        9.309695   0.000000
    8        9.979741   0.000000
 
  0.1179578E+00  0.0000000E+00  0.1179578E+00  0.0000000E+00
    1       -5.938613   1.000000
    2        4.542752   1.000000
    3        5.031806   1.000000
    4        5.031806   1.000000
    5        7.772431   0.000000
    6        9.334656   0.000000
    7        9.334656   0.000000
    8        9.993368   0.000000
 
  0.1197183E+00  0.0000000E+00  0.1197183E+00  0.0000000E+00
    1       -5.931319   1.000000
    2        4.514327   1.000000
    3        5.015432   1.000000
    4        5.015432   1.000000
    5        7.759531   0.000000
    6        9.359767   0.000000
    7        9.359767   0.000000
    8       10.006221   0.000000
 
  0.1214789E+00  0.0000000E+00  0.1214789E+00  0.0000000E+00
    1       -5.923918   1.000000
    2        4.485788   1.000000
    3        4.999037   1.000000
    4        4.999037   1.000000
    5        7.746573   0.000000
    6        9.385023   0.000000
    7        9.385023   0.000000
    8       10.018257   0.000000
 
  0.1232394E+00  0.0000000E+00  0.1232394E+00  0.0000000E+00
    1       -5.916410   1.000000
    2        4.457139   1.000000
    3        4.982624   1.000000
    4        4.982624   1.000000
    5        7.733559   0.000000
    6        9.410421   0.000000
    7        9.410421   0.000000
    8       10.029433   0.000000
 
  0.1250000E+00  0.0000000E+00  0.1250000E+00  0.0000000E+00
    1       -5.908786   1.000000
    2        4.428383   1.000000
    3        4.966200   1.000000
    4        4.966200   1.000000
    5        7.720493   0.000000
    6        9.435960   0.000000
    7        9.435960   0.000000
    8       10.039709   0.000000
 
  0.1267606E+00  0.0000000E+00  0.1267606E+00  0.0000000E+00
    1       -5.901065   1.000000
    2        4.399526   1.000000
    3        4.949762   1.000000
    4        4.949762   1.000000
    5        7.707379   0.000000
    6        9.461631   0.000000
    7        9.461631   0.000000
    8       10.049039   0.000000
 
  0.1285211E+00  0.0000000E+00  0.1285211E+00  0.0000000E+00
    1       -5.893237   1.000000
    2        4.370569   1.000000
    3        4.933316   1.000000
    4        4.933316   1.000000
    5        7.694219   0.000000
    6        9.487435   0.000000
    7        9.487435   0.000000
    8       10.057389   0.000000
 
  0.1302817E+00  0.0000000E+00  0.1302817E+00  0.0000000E+00
    1       -5.885302   1.000000
    2        4.341517   1.000000
    3        4.916865   1.000000
    4        4.916865   1.000000
    5        7.681017   0.000000
    6        9.513368   0.000000
    7        9.513368   0.000000
    8       10.064721   0.000000
 
  0.1320423E+00  0.0000000E+00  0.1320423E+00  0.0000000E+00
    1       -5.877261   1.000000
    2        4.312373   1.000000
    3        4.900411   1.000000
    4        4.900411   1.000000
    5        7.667776   0.000000
    6        9.539428   0.000000
    7        9.539428   0.000000
    8       10.071001   0.000000
 