Name                                    
   5.43100000000000     
     0.500000    0.500000    0.000000
     0.500000    0.000000   -0.500000
     0.000000    0.500000   -0.500000
   Si
     2
Direct
  0.000000  0.000000  0.000000
  0.250000  0.250000  0.250000
 
   56   56   56
 -.77615457420E+01 -.71456030869E+01 -.53716846261E+01 -.26491316057E+01 0.71202314259E+00
 0.43510694401E+01 0.79113247625E+01 0.11088063433E+02 0.13660893858E+02 0.15507204343E+02
 0.16598897008E+02 0.16987937091E+02 0.16786425787E+02 0.16145027747E+02 0.15231497394E+02
 0.14206890486E+02 0.13163373116E+02 0.12141543237E+02 0.11175027972E+02 0.10289242737E+02
 0.95000170687E+01 0.88140213925E+01 0.82308446339E+01 0.77460214687E+01 0.73540772030E+01
 0.70507564415E+01 0.68339668103E+01 0.67034761861E+01 0.66598662613E+01 0.67034758866E+01
 0.68339663890E+01 0.70507561588E+01 0.73540772610E+01 0.77460218946E+01 0.82308452514E+01
 0.88140218980E+01 0.95000171846E+01 0.10289242364E+02 0.11175027263E+02 0.12141542552E+02
 0.13163372856E+02 0.14206890883E+02 0.15231498346E+02 0.16145028785E+02 0.16786426207E+02
 0.16987936214E+02 0.16598894461E+02 0.15507200252E+02 0.13660888868E+02 0.11088058516E+02
 0.79113208976E+01 0.43510672734E+01 0.71202276340E+00 -.26491306792E+01 -.53716832439E+01
 -.71456021226E+01 -.71456030869E+01 -.58934460412E+01 -.35431238572E+01 -.37538011270E+00
 0.32506721520E+01 0.69560965562E+01 0.10397765378E+02 0.13309828889E+02 0.15525107617E+02
 0.16977003949E+02 0.17687287246E+02 0.17746460443E+02 0.17291863347E+02 0.16486091893E+02
 0.15496474358E+02 0.14455107399E+02 0.13415100229E+02 0.12412480812E+02 0.11476744812E+02
 0.10628720614E+02 0.98799243504E+01 0.92337224679E+01 0.86879115960E+01 0.82378642554E+01
 0.78792752394E+01 0.76097695316E+01 0.74291104433E+01 0.73383037145E+01 0.73383035293E+01
 0.74291099925E+01 0.76097690770E+01 0.78792750635E+01 0.82378645129E+01 0.86879122236E+01
 0.92337232058E+01 0.98799248629E+01 0.10628720659E+02 0.11476744376E+02 0.12412480132E+02
 0.13415099691E+02 0.14455107343E+02 0.15496474879E+02 0.16486092731E+02 0.17291863935E+02
 0.17746460108E+02 0.17687285483E+02 0.16977000677E+02 0.15525103272E+02 0.13309824335E+02
 0.10397761623E+02 0.69560944010E+01 0.32506718970E+01 -.37537879424E+00 -.35431217870E+01
 -.58934442393E+01 -.71456023804E+01 -.53716846261E+01 -.35431238572E+01 -.75130514916E+00
 0.26695748300E+01 0.63381681712E+01 0.98868887469E+01 0.13011932316E+02 0.15503655986E+02
 0.17255508296E+02 0.18255783288E+02 0.18569305029E+02 0.18315455089E+02 0.17646320617E+02
 0.16726238733E+02 0.15707846731E+02 0.14670778992E+02 0.13652371782E+02 0.12684586528E+02
 0.11792163295E+02 0.10991113987E+02 0.10288886787E+02 0.96862226793E+01 0.91800803196E+01
 0.87666643931E+01 0.84436230890E+01 0.82108517920E+01 0.80699175005E+01 0.80226729065E+01
 0.80699171424E+01 0.82108512687E+01 0.84436226909E+01 0.87666643646E+01 0.91800807351E+01
 0.96862234005E+01 0.10288887524E+02 0.10991114435E+02 0.11792163285E+02 0.12684586114E+02
 0.13652371223E+02 0.14670778619E+02 0.15707846775E+02 0.16726239175E+02 0.17646321150E+02
 0.18315455213E+02 0.18569304263E+02 0.18255781393E+02 0.17255505434E+02 0.15503652723E+02
 0.13011929454E+02 0.98868870448E+01 0.63381680548E+01 0.26695762125E+01 -.75130286141E+00
 -.35431215628E+01 -.53716832079E+01 -.60083023331E+01 -.26491316057E+01 -.37538011270E+00
 0.26695748300E+01 0.61245782718E+01 0.96160277272E+01 0.12814380866E+02 0.15473444524E+02
 0.17447714053E+02 0.18690019642E+02 0.19236109902E+02 0.19183398946E+02 0.18668947409E+02
 0.17848890076E+02 0.16879186037E+02 0.15867649208E+02 0.14856176836E+02 0.13877653031E+02
 0.12959357737E+02 0.12120972774E+02 0.11373862243E+02 0.10722072439E+02 0.10164763642E+02
 0.96992467844E+01 0.93236082029E+01 0.90381073113E+01 0.88450501736E+01 0.87474766969E+01
 0.87474765148E+01 0.88450497158E+01 0.90381068029E+01 0.93236079024E+01 0.96992468633E+01
 0.10164764106E+02 0.10722073124E+02 0.11373862888E+02 0.12120973144E+02 0.12959357725E+02
 0.13877652705E+02 0.14856176401E+02 0.15867648901E+02 0.16879185997E+02 0.17848890264E+02
 0.18668947610E+02 0.19183398859E+02 0.19236109286E+02 0.18690018460E+02 0.17447712528E+02
 0.15473443091E+02 0.12814380026E+02 0.96160278455E+01 0.61245794205E+01 0.26695767245E+01
 -.37537803683E+00 -.26491300050E+01 -.38652556336E+01 -.38652562335E+01 0.71202314259E+00
 0.32506721520E+01 0.63381681712E+01 0.96160277272E+01 0.12745425405E+02 0.15453823830E+02
 0.17561102557E+02 0.18984711147E+02 0.19729008070E+02 0.19866068681E+02 0.19514063460E+02
 0.18816574539E+02 0.17923847826E+02 0.16961382685E+02 0.15981131220E+02 0.15015679636E+02
 0.14093453266E+02 0.13236666547E+02 0.12459991702E+02 0.11770736310E+02 0.11170618190E+02
 0.10658559714E+02 0.10233527908E+02 0.98964428634E+01 0.96505650723E+01 0.95004092292E+01
 0.94498505983E+01 0.95004089319E+01 0.96505646022E+01 0.98964424189E+01 0.10233527679E+02
 0.10658559808E+02 0.11170618588E+02 0.11770736875E+02 0.12459992239E+02 0.13236666878E+02
 0.14093453300E+02 0.15015679394E+02 0.15981130815E+02 0.16961382270E+02 0.17923847525E+02
 0.18816574398E+02 0.19514063446E+02 0.19866068712E+02 0.19729008075E+02 0.18984711113E+02
 0.17561102553E+02 0.15453823984E+02 0.12745425839E+02 0.96160284966E+01 0.63381692117E+01
 0.32506732787E+01 0.71202410444E+00 -.95904549389E+00 -.15422956118E+01 -.95904604854E+00
 0.43510694401E+01 0.69560965562E+01 0.98868887469E+01 0.12814380866E+02 0.15453823830E+02
 0.17598675293E+02 0.19134001400E+02 0.20032239799E+02 0.20337726007E+02 0.20146527718E+02
 0.19586018953E+02 0.18796113357E+02 0.17906716515E+02 0.16982540755E+02 0.16055343669E+02
 0.15153491259E+02 0.14300484680E+02 0.13513364571E+02 0.12802245247E+02 0.12171405394E+02
 0.11621665536E+02 0.11153232074E+02 0.10767977590E+02 0.10470337579E+02 0.10266567072E+02
 0.10162790787E+02 0.10162790668E+02 0.10266566754E+02 0.10470337165E+02 0.10767977213E+02
 0.11153231863E+02 0.11621665567E+02 0.12171405671E+02 0.12802245694E+02 0.13513365049E+02
 0.14300485029E+02 0.15153491350E+02 0.16055343441E+02 0.16982540242E+02 0.17906715839E+02
 0.18796112701E+02 0.19586018506E+02 0.20146527624E+02 0.20337726319E+02 0.20032240464E+02
 0.19134002271E+02 0.17598676173E+02 0.15453824532E+02 0.12814381260E+02 0.98868888050E+01
 0.69560963494E+01 0.43510691127E+01 0.23943044575E+01 0.13440499123E+01 0.13440500241E+01
 0.23943047430E+01 0.79113247625E+01 0.10397765378E+02 0.13011932316E+02 0.15473444524E+02
 0.17561102557E+02 0.19134001400E+02 0.20134667238E+02 0.20578866108E+02 0.20538271423E+02
 0.20121081243E+02 0.19453464222E+02 0.18660675009E+02 0.17816747439E+02 0.16953006059E+02
 0.16096848598E+02 0.15271888564E+02 0.14496419427E+02 0.13782567453E+02 0.13136796592E+02
 0.12561799928E+02 0.12059183165E+02 0.11631961553E+02 0.11285907637E+02 0.11029217823E+02
 0.10870652662E+02 0.10816953717E+02 0.10870652522E+02 0.11029217564E+02 0.11285907308E+02
 0.11631961228E+02 0.12059182939E+02 0.12561799890E+02 0.13136796788E+02 0.13782567857E+02
 0.14496419924E+02 0.15271888971E+02 0.16096848719E+02 0.16953005762E+02 0.17816746720E+02
 0.18660674014E+02 0.19453463224E+02 0.20121080549E+02 0.20538271271E+02 0.20578866561E+02
 0.20134668144E+02 0.19134002424E+02 0.17561103282E+02 0.15473444605E+02 0.13011931599E+02
 0.10397763976E+02 0.79113230370E+01 0.58530109999E+01 0.44922610337E+01 0.40163164849E+01
 0.44922619502E+01 0.58530125537E+01 0.11088063433E+02 0.13309828889E+02 0.15503655986E+02
 0.17447714053E+02 0.18984711147E+02 0.20032239799E+02 0.20578866108E+02 0.20670980615E+02
 0.20395534829E+02 0.19862260965E+02 0.19186294990E+02 0.18444553422E+02 0.17667923894E+02
 0.16882211650E+02 0.16110153048E+02 0.15370160387E+02 0.14675360926E+02 0.14033695840E+02
 0.13449359146E+02 0.12925231027E+02 0.12465458305E+02 0.12077168925E+02 0.11770571896E+02
 0.11557311399E+02 0.11447663193E+02 0.11447663175E+02 0.11557311332E+02 0.11770571753E+02
 0.12077168698E+02 0.12465458037E+02 0.12925230815E+02 0.13449359109E+02 0.14033696060E+02
 0.14675361392E+02 0.15370160972E+02 0.16110153526E+02 0.16882211773E+02 0.17667923496E+02
 0.18444552505E+02 0.19186293742E+02 0.19862259718E+02 0.20395533932E+02 0.20670980295E+02
 0.20578866360E+02 0.20032240356E+02 0.18984711564E+02 0.17447713856E+02 0.15503654869E+02
 0.13309826851E+02 0.11088060814E+02 0.90977953777E+01 0.75951882979E+01 0.67863585613E+01
 0.67863592646E+01 0.75951902104E+01 0.90977979803E+01 0.13660893858E+02 0.15525107617E+02
 0.17255508296E+02 0.18690019642E+02 0.19729008070E+02 0.20337726007E+02 0.20538271423E+02
 0.20395534829E+02 0.20000995803E+02 0.19456341601E+02 0.18834732120E+02 0.18165632063E+02
 0.17472823251E+02 0.16777394860E+02 0.16096848598E+02 0.15444230171E+02 0.14828024139E+02
 0.14253245702E+02 0.13723611233E+02 0.13244115826E+02 0.12823033957E+02 0.12472450148E+02
 0.12206926119E+02 0.12040635515E+02 0.11983938144E+02 0.12040635581E+02 0.12206926197E+02
 0.12472450162E+02 0.12823033868E+02 0.13244115666E+02 0.13723611116E+02 0.14253245771E+02
 0.14828024487E+02 0.15444230774E+02 0.16096849304E+02 0.16777395415E+02 0.17472823392E+02
 0.18165631628E+02 0.18834731130E+02 0.19456340262E+02 0.20000994443E+02 0.20395533761E+02
 0.20538270811E+02 0.20337725783E+02 0.19729007934E+02 0.18690019181E+02 0.17255507141E+02
 0.15525105620E+02 0.13660891190E+02 0.11871189600E+02 0.10380721649E+02 0.93917978177E+01
 0.90453136872E+01 0.93917992163E+01 0.10380724083E+02 0.11871192469E+02 0.15507204343E+02
 0.16977003949E+02 0.18255783288E+02 0.19236109902E+02 0.19866068681E+02 0.20146527718E+02
 0.20121081243E+02 0.19862260965E+02 0.19456341601E+02 0.18967117021E+02 0.18421082428E+02
 0.17839650790E+02 0.17241690414E+02 0.16642940376E+02 0.16055343669E+02 0.15486908261E+02
 0.14942584417E+02 0.14426215446E+02 0.13943075696E+02 0.13502098954E+02 0.13116830683E+02
 0.12804490480E+02 0.12583113646E+02 0.12467950463E+02 0.12467950555E+02 0.12583113880E+02
 0.12804490755E+02 0.13116830891E+02 0.13502099049E+02 0.13943075715E+02 0.14426215506E+02
 0.14942584663E+02 0.15486908781E+02 0.16055344425E+02 0.16642941205E+02 0.17241691069E+02
 0.17839651025E+02 0.18421082099E+02 0.18967116153E+02 0.19456340374E+02 0.19862259649E+02
 0.20121080086E+02 0.20146526835E+02 0.19866068012E+02 0.19236109223E+02 0.18255782329E+02
 0.16977002509E+02 0.15507202407E+02 0.14001465752E+02 0.12642758320E+02 0.11612367904E+02
 0.11056378806E+02 0.11056379349E+02 0.11612369398E+02 0.12642760403E+02 0.14001467963E+02
 0.16598897008E+02 0.17687287246E+02 0.18569305029E+02 0.19183398946E+02 0.19514063460E+02
 0.19586018953E+02 0.19453464222E+02 0.19186294990E+02 0.18834732120E+02 0.18421082428E+02
 0.17964066941E+02 0.17479914693E+02 0.16981956513E+02 0.16480173325E+02 0.15981131220E+02
 0.15488763339E+02 0.15006166664E+02 0.14538097776E+02 0.14093393407E+02 0.13686241210E+02
 0.13334838941E+02 0.13060766880E+02 0.12885615139E+02 0.12825283918E+02 0.12885615423E+02
 0.13060767354E+02 0.13334839463E+02 0.13686241652E+02 0.14093393718E+02 0.14538098002E+02
 0.15006166917E+02 0.15488763752E+02 0.15981131877E+02 0.16480174195E+02 0.16981957450E+02
 0.17479915482E+02 0.17964067369E+02 0.18421082360E+02 0.18834731554E+02 0.19186294049E+02
 0.19453463107E+02 0.19586017870E+02 0.19514062529E+02 0.19183398194E+02 0.18569304369E+02
 0.17687286555E+02 0.16598896198E+02 0.15409764280E+02 0.14258024402E+02 0.13293582500E+02
 0.12651644885E+02 0.12426405890E+02 0.12651645340E+02 0.13293583294E+02 0.14258025353E+02
 0.15409765211E+02 0.16987937091E+02 0.17746460443E+02 0.18315455089E+02 0.18668947409E+02
 0.18816574539E+02 0.18796113357E+02 0.18660675009E+02 0.18444553422E+02 0.18165632063E+02
 0.17839650790E+02 0.17479914693E+02 0.17096913114E+02 0.16698029904E+02 0.16287594378E+02
 0.15867649208E+02 0.15439652426E+02 0.15006938069E+02 0.14577280253E+02 0.14163035773E+02
 0.13782068603E+02 0.13459907674E+02 0.13224637416E+02 0.13100150843E+02 0.13100151047E+02
 0.13224637975E+02 0.13459908443E+02 0.13782069403E+02 0.14163036457E+02 0.14577280762E+02
 0.15006938451E+02 0.15439652793E+02 0.15867649691E+02 0.16287595073E+02 0.16698030811E+02
 0.17096914125E+02 0.17479915632E+02 0.17839651465E+02 0.18165632329E+02 0.18444553236E+02
 0.18660674443E+02 0.18796112566E+02 0.18816573732E+02 0.18668946762E+02 0.18315454724E+02
 0.17746460398E+02 0.16987937317E+02 0.16103422354E+02 0.15188585240E+02 0.14357984000E+02
 0.13725719335E+02 0.13383869352E+02 0.13383869255E+02 0.13725719058E+02 0.14357983591E+02
 0.15188584783E+02 0.16103421954E+02 0.16786425787E+02 0.17291863347E+02 0.17646320617E+02
 0.17848890076E+02 0.17923847826E+02 0.17906716515E+02 0.17816747439E+02 0.17667923894E+02
 0.17472823251E+02 0.17241690414E+02 0.16981956513E+02 0.16698029904E+02 0.16391455816E+02
 0.16061710701E+02 0.15707846731E+02 0.15330915032E+02 0.14936280198E+02 0.14532170239E+02
 0.14135524191E+02 0.13774376614E+02 0.13482485274E+02 0.13291923760E+02 0.13225630841E+02
 0.13291924266E+02 0.13482486168E+02 0.13774377699E+02 0.14135525253E+02 0.14532171113E+02
 0.14936280815E+02 0.15330915446E+02 0.15707847072E+02 0.16061711115E+02 0.16391456430E+02
 0.16698030756E+02 0.16981957530E+02 0.17241691450E+02 0.17472824114E+02 0.17667924429E+02
 0.17816747570E+02 0.17906716292E+02 0.17923847396E+02 0.17848889672E+02 0.17646320475E+02
 0.17291863643E+02 0.16786426599E+02 0.16160501557E+02 0.15473104103E+02 0.14804407738E+02
 0.14242718648E+02 0.13868142393E+02 0.13736595717E+02 0.13868141718E+02 0.14242717435E+02
 0.14804406227E+02 0.15473102582E+02 0.16160500297E+02 0.16145027747E+02 0.16486091893E+02
 0.16726238733E+02 0.16879186037E+02 0.16961382685E+02 0.16982540755E+02 0.16953006059E+02
 0.16882211650E+02 0.16777394860E+02 0.16642940376E+02 0.16480173325E+02 0.16287594378E+02
 0.16061710701E+02 0.15798639025E+02 0.15496474358E+02 0.15157026212E+02 0.14783372784E+02
 0.14389689938E+02 0.14004316174E+02 0.13664899406E+02 0.13410801994E+02 0.13274562765E+02
 0.13274563082E+02 0.13410802878E+02 0.13664900665E+02 0.14004317555E+02 0.14389691192E+02
 0.14783373737E+02 0.15157026800E+02 0.15496474658E+02 0.15798639197E+02 0.16061710922E+02
 0.16287594805E+02 0.16480174020E+02 0.16642941285E+02 0.16777395847E+02 0.16882212525E+02
 0.16953006669E+02 0.16982541020E+02 0.16961382658E+02 0.16879185881E+02 0.16726238683E+02
 0.16486092207E+02 0.16145028582E+02 0.15709987596E+02 0.15210941773E+02 0.14697913089E+02
 0.14233123426E+02 0.13879569281E+02 0.13688450946E+02 0.13688450502E+02 0.13879568040E+02
 0.14233121642E+02 0.14697911108E+02 0.15210939952E+02 0.15709986205E+02 0.15231497394E+02
 0.15496474358E+02 0.15707846731E+02 0.15867649208E+02 0.15981131220E+02 0.16055343669E+02
 0.16096848598E+02 0.16110153048E+02 0.16096848598E+02 0.16055343669E+02 0.15981131220E+02
 0.15867649208E+02 0.15707846731E+02 0.15496474358E+02 0.15231497394E+02 0.14910423129E+02
 0.14542449648E+02 0.14153539436E+02 0.13782595580E+02 0.13474236179E+02 0.13269704262E+02
 0.13198041815E+02 0.13269704989E+02 0.13474237480E+02 0.13782597185E+02 0.14153541039E+02
 0.14542450983E+02 0.14910424030E+02 0.15231497829E+02 0.15496474441E+02 0.15707846656E+02
 0.15867649175E+02 0.15981131395E+02 0.16055344112E+02 0.16096849259E+02 0.16110153795E+02
 0.16096849259E+02 0.16055344112E+02 0.15981131395E+02 0.15867649175E+02 0.15707846656E+02
 0.15496474441E+02 0.15231497829E+02 0.14910424030E+02 0.14542450983E+02 0.14153541039E+02
 0.13782597185E+02 0.13474237480E+02 0.13269704989E+02 0.13198041815E+02 0.13269704262E+02
 0.13474236179E+02 0.13782595580E+02 0.14153539436E+02 0.14542449648E+02 0.14910423129E+02
 0.14206890486E+02 0.14455107399E+02 0.14670778992E+02 0.14856176836E+02 0.15015679636E+02
 0.15153491259E+02 0.15271888564E+02 0.15370160387E+02 0.15444230171E+02 0.15486908261E+02
 0.15488763339E+02 0.15439652426E+02 0.15330915032E+02 0.15157026212E+02 0.14910423129E+02
 0.14593367905E+02 0.14226655645E+02 0.13847255140E+02 0.13502016038E+02 0.13238676297E+02
 0.13096112636E+02 0.13096113063E+02 0.13238677488E+02 0.13502017745E+02 0.13847257023E+02
 0.14226657366E+02 0.14593369204E+02 0.14910423882E+02 0.15157026437E+02 0.15330914887E+02
 0.15439652125E+02 0.15488763077E+02 0.15486908184E+02 0.15444230312E+02 0.15370160693E+02
 0.15271888920E+02 0.15153491536E+02 0.15015679748E+02 0.14856176766E+02 0.14670778793E+02
 0.14455107190E+02 0.14206890401E+02 0.13928366503E+02 0.13627612047E+02 0.13316497448E+02
 0.13015241333E+02 0.12751610006E+02 0.12554987212E+02 0.12449773094E+02 0.12449772917E+02
 0.12554986723E+02 0.12751609318E+02 0.13015240601E+02 0.13316496829E+02 0.13627611655E+02
 0.13928366370E+02 0.13163373116E+02 0.13415100229E+02 0.13652371782E+02 0.13877653031E+02
 0.14093453266E+02 0.14300484680E+02 0.14496419427E+02 0.14675360926E+02 0.14828024139E+02
 0.14942584417E+02 0.15006166664E+02 0.15006938069E+02 0.14936280198E+02 0.14783372784E+02
 0.14542449648E+02 0.14226655645E+02 0.13867716665E+02 0.13511058606E+02 0.13207582490E+02
 0.13003707396E+02 0.12931870160E+02 0.13003708318E+02 0.13207584139E+02 0.13511060648E+02
 0.13867718713E+02 0.14226657364E+02 0.14542450826E+02 0.14783373363E+02 0.14936280254E+02
 0.15006937796E+02 0.15006166258E+02 0.14942584040E+02 0.14828023885E+02 0.14675360796E+02
 0.14496419373E+02 0.14300484626E+02 0.14093453146E+02 0.13877652810E+02 0.13652371463E+02
 0.13415099831E+02 0.13163372665E+02 0.12896901968E+02 0.12619511583E+02 0.12340304587E+02
 0.12073599912E+02 0.11837198574E+02 0.11649698028E+02 0.11528673710E+02 0.11486796656E+02
 0.11528673856E+02 0.11649698302E+02 0.11837198943E+02 0.12073600343E+02 0.12340305047E+02
 0.12619512053E+02 0.12896902439E+02 0.12141543237E+02 0.12412480812E+02 0.12684586528E+02
 0.12959357737E+02 0.13236666547E+02 0.13513364571E+02 0.13782567453E+02 0.14033695840E+02
 0.14253245702E+02 0.14426215446E+02 0.14538097776E+02 0.14577280253E+02 0.14532170239E+02
 0.14389689938E+02 0.14153539436E+02 0.13847255140E+02 0.13511058606E+02 0.13194982110E+02
 0.12949458819E+02 0.12815299866E+02 0.12815300375E+02 0.12949460235E+02 0.13194984139E+02
 0.13511060850E+02 0.13847257208E+02 0.14153541041E+02 0.14389690955E+02 0.14532170688E+02
 0.14577280268E+02 0.14538097549E+02 0.14426215124E+02 0.14253245384E+02 0.14033695553E+02
 0.13782567177E+02 0.13513364280E+02 0.13236666224E+02 0.12959357389E+02 0.12684586156E+02
 0.12412480407E+02 0.12141542754E+02 0.11870490513E+02 0.11600142027E+02 0.11334859956E+02
 0.11083111257E+02 0.10856908071E+02 0.10670196827E+02 0.10536557975E+02 0.10466763422E+02
 0.10466763717E+02 0.10536558798E+02 0.10670198015E+02 0.10856909410E+02 0.11083112545E+02
 0.11334861057E+02 0.11600142884E+02 0.11870491147E+02 0.11175027972E+02 0.11476744812E+02
 0.11792163295E+02 0.12120972774E+02 0.12459991702E+02 0.12802245247E+02 0.13136796592E+02
 0.13449359146E+02 0.13723611233E+02 0.13943075696E+02 0.14093393407E+02 0.14163035773E+02
 0.14135524191E+02 0.14004316174E+02 0.13782595580E+02 0.13502016038E+02 0.13207582490E+02
 0.12949458819E+02 0.12773232018E+02 0.12710691799E+02 0.12773233037E+02 0.12949460638E+02
 0.13207584736E+02 0.13502018297E+02 0.13782597507E+02 0.14004317579E+02 0.14135525053E+02
 0.14163036187E+02 0.14093393542E+02 0.13943075701E+02 0.13723611181E+02 0.13449359058E+02
 0.13136796433E+02 0.12802245001E+02 0.12459991380E+02 0.12120972430E+02 0.11792162992E+02
 0.11476744571E+02 0.11175027739E+02 0.10885953529E+02 0.10608845181E+02 0.10344980489E+02
 0.10098564382E+02 0.98768243408E+01 0.96891917995E+01 0.95457866054E+01 0.94555977377E+01
 0.94248024770E+01 0.94555985520E+01 0.95457880479E+01 0.96891935591E+01 0.98768260762E+01
 0.10098565825E+02 0.10344981511E+02 0.10608845802E+02 0.10885953876E+02 0.10289242737E+02
 0.10628720614E+02 0.10991113987E+02 0.11373862243E+02 0.11770736310E+02 0.12171405394E+02
 0.12561799928E+02 0.12925231027E+02 0.13244115826E+02 0.13502098954E+02 0.13686241210E+02
 0.13782068603E+02 0.13774376614E+02 0.13664899406E+02 0.13474236179E+02 0.13238676297E+02
 0.13003707396E+02 0.12815299866E+02 0.12710691799E+02 0.12710692313E+02 0.12815301293E+02
 0.13003709427E+02 0.13238678529E+02 0.13474238236E+02 0.13664901041E+02 0.13774377759E+02
 0.13782069336E+02 0.13686241683E+02 0.13502099329E+02 0.13244116175E+02 0.12925231346E+02
 0.12561800160E+02 0.12171405475E+02 0.11770736240E+02 0.11373862088E+02 0.10991113859E+02
 0.10628720606E+02 0.10289242866E+02 0.99726913115E+01 0.96780639090E+01 0.94049220026E+01
 0.91546049940E+01 0.89307793219E+01 0.87392098728E+01 0.85868643230E+01 0.84806313567E+01
 0.84259988024E+01 0.84259992212E+01 0.84806325011E+01 0.85868658990E+01 0.87392115016E+01
 0.89307806675E+01 0.91546058554E+01 0.94049223630E+01 0.96780639026E+01 0.99726911487E+01
 0.95000170687E+01 0.98799243504E+01 0.10288886787E+02 0.10722072439E+02 0.11170618190E+02
 0.11621665536E+02 0.12059183165E+02 0.12465458305E+02 0.12823033957E+02 0.13116830683E+02
 0.13334838941E+02 0.13459907674E+02 0.13482485274E+02 0.13410801994E+02 0.13269704262E+02
 0.13096112636E+02 0.12931870160E+02 0.12815300375E+02 0.12773233037E+02 0.12815301293E+02
 0.12931871786E+02 0.13096114617E+02 0.13269706223E+02 0.13410803651E+02 0.13482486505E+02
 0.13459908529E+02 0.13334839561E+02 0.13116831246E+02 0.12823034571E+02 0.12465458969E+02
 0.12059183804E+02 0.11621666041E+02 0.11170618504E+02 0.10722072586E+02 0.10288886885E+02
 0.98799245410E+01 0.95000174529E+01 0.91506804201E+01 0.88313726555E+01 0.85409759942E+01
 0.82791123540E+01 0.80469816864E+01 0.78475548451E+01 0.76851517949E+01 0.75646011781E+01
 0.74902554772E+01 0.74651175238E+01 0.74902560627E+01 0.75646021601E+01 0.76851528642E+01
 0.78475556853E+01 0.80469820828E+01 0.82791122591E+01 0.85409755242E+01 0.88313720252E+01
 0.91506798477E+01 0.88140213925E+01 0.92337224679E+01 0.96862226793E+01 0.10164763642E+02
 0.10658559714E+02 0.11153232074E+02 0.11631961553E+02 0.12077168925E+02 0.12472450148E+02
 0.12804490480E+02 0.13060766880E+02 0.13224637416E+02 0.13291923760E+02 0.13274562765E+02
 0.13198041815E+02 0.13096113063E+02 0.13003708318E+02 0.12949460235E+02 0.12949460638E+02
 0.13003709427E+02 0.13096114617E+02 0.13198043479E+02 0.13274564245E+02 0.13291924889E+02
 0.13224638193E+02 0.13060767423E+02 0.12804490966E+02 0.12472450728E+02 0.12077169640E+02
 0.11631962352E+02 0.11153232834E+02 0.10658560321E+02 0.10164764054E+02 0.96862229523E+01
 0.92337227388E+01 0.88140218129E+01 0.84301781578E+01 0.80825057227E+01 0.77698833475E+01
 0.74910674962E+01 0.72456867213E+01 0.70347155396E+01 0.68603978600E+01 0.67257504209E+01
 0.66338661064E+01 0.65872350172E+01 0.65872351423E+01 0.66338664137E+01 0.67257507390E+01
 0.68603979839E+01 0.70347153182E+01 0.72456861204E+01 0.74910666117E+01 0.77698823633E+01
 0.80825048355E+01 0.84301774951E+01 0.82308446339E+01 0.86879115960E+01 0.91800803196E+01
 0.96992467844E+01 0.10233527908E+02 0.10767977590E+02 0.11285907637E+02 0.11770571896E+02
 0.12206926119E+02 0.12583113646E+02 0.12885615139E+02 0.13100150843E+02 0.13225630841E+02
 0.13274563082E+02 0.13269704989E+02 0.13238677488E+02 0.13207584139E+02 0.13194984139E+02
 0.13207584736E+02 0.13238678529E+02 0.13269706223E+02 0.13274564245E+02 0.13225631743E+02
 0.13100151427E+02 0.12885615472E+02 0.12583113870E+02 0.12206926403E+02 0.11770572330E+02
 0.11285908228E+02 0.10767978256E+02 0.10233528527E+02 0.96992472607E+01 0.91800806306E+01
 0.86879118074E+01 0.82308448735E+01 0.78132070904E+01 0.74362110332E+01 0.70990594789E+01
 0.68001809747E+01 0.65382815095E+01 0.63129874357E+01 0.61250050275E+01 0.59758759776E+01
 0.58675069389E+01 0.58016647156E+01 0.57795724520E+01 0.58016645867E+01 0.58675066393E+01
 0.59758754514E+01 0.61250042465E+01 0.63129864333E+01 0.65382803868E+01 0.68001798795E+01
 0.70990585543E+01 0.74362103674E+01 0.78132066824E+01 0.77460214687E+01 0.82378642554E+01
 0.87666643931E+01 0.93236082029E+01 0.98964428634E+01 0.10470337579E+02 0.11029217823E+02
 0.11557311399E+02 0.12040635515E+02 0.12467950463E+02 0.12825283918E+02 0.13100151047E+02
 0.13291924266E+02 0.13410802878E+02 0.13474237480E+02 0.13502017745E+02 0.13511060648E+02
 0.13511060850E+02 0.13502018297E+02 0.13474238236E+02 0.13410803651E+02 0.13291924889E+02
 0.13100151427E+02 0.12825284054E+02 0.12467950428E+02 0.12040635441E+02 0.11557311395E+02
 0.11029217953E+02 0.10470337836E+02 0.98964431765E+01 0.93236084820E+01 0.87666645615E+01
 0.82378642963E+01 0.77460214281E+01 0.72962860297E+01 0.68905628520E+01 0.65284164594E+01
 0.62081944899E+01 0.59280721264E+01 0.56867827917E+01 0.54839283963E+01 0.53199081118E+01
 0.51956107955E+01 0.51120450382E+01 0.50700354640E+01 0.50700352616E+01 0.51120444541E+01
 0.51956098952E+01 0.53199070006E+01 0.54839272073E+01 0.56867816683E+01 0.59280711954E+01
 0.62081938345E+01 0.65284160972E+01 0.68905627339E+01 0.72962860510E+01 0.73540772030E+01
 0.78792752394E+01 0.84436230890E+01 0.90381073113E+01 0.96505650723E+01 0.10266567072E+02
 0.10870652662E+02 0.11447663193E+02 0.11983938144E+02 0.12467950555E+02 0.12885615423E+02
 0.13224637975E+02 0.13482486168E+02 0.13664900665E+02 0.13782597185E+02 0.13847257023E+02
 0.13867718713E+02 0.13847257208E+02 0.13782597507E+02 0.13664901041E+02 0.13482486505E+02
 0.13224638193E+02 0.12885615472E+02 0.12467950428E+02 0.11983937888E+02 0.11447662874E+02
 0.10870652354E+02 0.10266566834E+02 0.96505649179E+01 0.90381072156E+01 0.84436229923E+01
 0.78792750749E+01 0.73540769254E+01 0.68735498381E+01 0.64399736631E+01 0.60531291266E+01
 0.57113083559E+01 0.54123218514E+01 0.51542672380E+01 0.49359316494E+01 0.47568346579E+01
 0.46170293532E+01 0.45168230058E+01 0.44565469979E+01 0.44364287055E+01 0.44565464812E+01
 0.45168220836E+01 0.46170282194E+01 0.47568335381E+01 0.49359307441E+01 0.51542666779E+01
 0.54123216709E+01 0.57113085013E+01 0.60531294805E+01 0.64399740894E+01 0.68735502221E+01
 0.70507564415E+01 0.76097695316E+01 0.82108517920E+01 0.88450501736E+01 0.95004092292E+01
 0.10162790787E+02 0.10816953717E+02 0.11447663175E+02 0.12040635581E+02 0.12583113880E+02
 0.13060767354E+02 0.13459908443E+02 0.13774377699E+02 0.14004317555E+02 0.14153541039E+02
 0.14226657366E+02 0.14226657364E+02 0.14153541041E+02 0.14004317579E+02 0.13774377759E+02
 0.13459908529E+02 0.13060767423E+02 0.12583113870E+02 0.12040635441E+02 0.11447662874E+02
 0.10816953275E+02 0.10162790267E+02 0.95004087120E+01 0.88450497269E+01 0.82108514318E+01
 0.76097692182E+01 0.70507560871E+01 0.65393937109E+01 0.60780548916E+01 0.56665368595E+01
 0.53029831902E+01 0.49848508809E+01 0.47096957891E+01 0.44756353917E+01 0.42814700798E+01
 0.41265558885E+01 0.40105788510E+01 0.39333656371E+01 0.38947949834E+01 0.38947947303E+01
 0.39333649558E+01 0.40105779501E+01 0.41265550375E+01 0.42814695238E+01 0.44756352766E+01
 0.47096961265E+01 0.49848515604E+01 0.53029840300E+01 0.56665376764E+01 0.60780555621E+01
 0.65393941990E+01 0.68339668103E+01 0.74291104433E+01 0.80699175005E+01 0.87474766969E+01
 0.94498505983E+01 0.10162790668E+02 0.10870652522E+02 0.11557311332E+02 0.12206926197E+02
 0.12804490755E+02 0.13334839463E+02 0.13782069403E+02 0.14135525253E+02 0.14389691192E+02
 0.14542450983E+02 0.14593369204E+02 0.14542450826E+02 0.14389690955E+02 0.14135525053E+02
 0.13782069336E+02 0.13334839561E+02 0.12804490966E+02 0.12206926403E+02 0.11557311395E+02
 0.10870652354E+02 0.10162790267E+02 0.94498500444E+01 0.87474761232E+01 0.80699170234E+01
 0.74291101074E+01 0.68339665614E+01 0.62900364269E+01 0.57996454851E+01 0.53624711598E+01
 0.49764087711E+01 0.46385121294E+01 0.43457939304E+01 0.40957385564E+01 0.38864878440E+01
 0.37167691066E+01 0.35857023417E+01 0.34926253494E+01 0.34370179071E+01 0.34185248157E+01
 0.34370175565E+01 0.34926248037E+01 0.35857018513E+01 0.37167689211E+01 0.38864881190E+01
 0.40957392974E+01 0.43457949981E+01 0.46385132960E+01 0.49764098121E+01 0.53624719318E+01
 0.57996459695E+01 0.62900367185E+01 0.67034761861E+01 0.73383037145E+01 0.80226729065E+01
 0.87474765148E+01 0.95004089319E+01 0.10266566754E+02 0.11029217564E+02 0.11770571753E+02
 0.12472450162E+02 0.13116830891E+02 0.13686241652E+02 0.14163036457E+02 0.14532171113E+02
 0.14783373737E+02 0.14910424030E+02 0.14910423882E+02 0.14783373363E+02 0.14532170688E+02
 0.14163036187E+02 0.13686241683E+02 0.13116831246E+02 0.12472450728E+02 0.11770572330E+02
 0.11029217953E+02 0.10266566834E+02 0.95004087120E+01 0.87474761232E+01 0.80226725239E+01
 0.73383034909E+01 0.67034761635E+01 0.61238279153E+01 0.56016763371E+01 0.51365745920E+01
 0.47261493701E+01 0.43670302820E+01 0.40556706861E+01 0.37889113352E+01 0.35642312866E+01
 0.33797324673E+01 0.32339776782E+01 0.31258195366E+01 0.30543169528E+01 0.30187607357E+01
 0.30187606394E+01 0.30543167345E+01 0.31258193763E+01 0.32339777850E+01 0.33797329826E+01
 0.35642322158E+01 0.37889125360E+01 0.40556719181E+01 0.43670312996E+01 0.47261500135E+01
 0.51365748443E+01 0.56016763204E+01 0.61238278263E+01 0.66598662613E+01 0.73383035293E+01
 0.80699171424E+01 0.88450497158E+01 0.96505646022E+01 0.10470337165E+02 0.11285907308E+02
 0.12077168698E+02 0.12823033868E+02 0.13502099049E+02 0.14093393718E+02 0.14577280762E+02
 0.14936280815E+02 0.15157026800E+02 0.15231497829E+02 0.15157026437E+02 0.14936280254E+02
 0.14577280268E+02 0.14093393542E+02 0.13502099329E+02 0.12823034571E+02 0.12077169640E+02
 0.11285908228E+02 0.10470337836E+02 0.96505649179E+01 0.88450497269E+01 0.80699170234E+01
 0.73383034909E+01 0.66598664531E+01 0.60405884664E+01 0.54829615594E+01 0.49865437557E+01
 0.45487848263E+01 0.41659525158E+01 0.38339755628E+01 0.35490585315E+01 0.33080019579E+01
 0.31082532713E+01 0.29477876646E+01 0.28249475684E+01 0.27383459926E+01 0.26868769851E+01
 0.26698069796E+01 0.26868769705E+01 0.27383460559E+01 0.28249478436E+01 0.29477882507E+01
 0.31082541654E+01 0.33080030320E+01 0.35490595642E+01 0.38339763201E+01 0.41659528383E+01
 0.45487846960E+01 0.49865433008E+01 0.54829610010E+01 0.60405880270E+01 0.67034758866E+01
 0.74291099925E+01 0.82108512687E+01 0.90381068029E+01 0.98964424189E+01 0.10767977213E+02