   2   2   1   0
  0.2002393E+02  0.3840297E-09  0.3840297E-09  0.3840297E-09  0.5000000E-15
  1.000000000000000E-004
  CAR 
 Name                                    
     16.91367708     -7.28156438  301      5.87459816      1.00000000
     -7.282  0.0000E+00  0.0000E+00
     -7.201  0.0000E+00  0.0000E+00
     -7.120  0.0000E+00  0.0000E+00
     -7.040  0.0000E+00  0.0000E+00
     -6.959  0.0000E+00  0.0000E+00
     -6.878  0.0000E+00  0.0000E+00
     -6.798  0.0000E+00  0.0000E+00
     -6.717  0.0000E+00  0.0000E+00
     -6.636  0.0000E+00  0.0000E+00
     -6.556  0.0000E+00  0.0000E+00
     -6.475  0.0000E+00  0.0000E+00
     -6.394  0.0000E+00  0.0000E+00
     -6.314  0.0000E+00  0.0000E+00
     -6.233  0.2384E-13  0.1923E-14
     -6.152  0.1216E+00  0.9804E-02
     -6.072  0.0000E+00  0.9804E-02
     -5.991  0.0000E+00  0.9804E-02
     -5.911  0.0000E+00  0.9804E-02
     -5.830  0.8889E-01  0.1697E-01
     -5.749  0.8836E+00  0.8824E-01
     -5.669  0.7293E+00  0.1471E+00
     -5.588  0.0000E+00  0.1471E+00
     -5.507  0.0000E+00  0.1471E+00
     -5.427  0.0000E+00  0.1471E+00
     -5.346  0.0000E+00  0.1471E+00
     -5.265  0.1545E-05  0.1471E+00
     -5.185  0.1459E+01  0.2647E+00
     -5.104  0.0000E+00  0.2647E+00
     -5.023  0.0000E+00  0.2647E+00
     -4.943  0.0000E+00  0.2647E+00
     -4.862  0.2909E+01  0.4993E+00
     -4.781  0.9715E+00  0.5784E+00
     -4.701  0.0000E+00  0.5784E+00
     -4.620  0.0000E+00  0.5784E+00
     -4.539  0.0000E+00  0.5784E+00
     -4.459  0.0000E+00  0.5784E+00
     -4.378  0.0000E+00  0.5784E+00
     -4.297  0.1512E-02  0.5786E+00
     -4.217  0.7278E+00  0.6373E+00
     -4.136  0.0000E+00  0.6373E+00
     -4.056  0.2896E+01  0.8708E+00
     -3.975  0.0000E+00  0.8725E+00
     -3.894  0.8786E+00  0.9434E+00
     -3.814  0.2525E+01  0.1147E+01
     -3.733  0.3690E-10  0.1147E+01
     -3.652  0.2917E+01  0.1382E+01
     -3.572  0.0000E+00  0.1382E+01
     -3.491  0.0000E+00  0.1382E+01
     -3.410  0.0000E+00  0.1382E+01
     -3.330  0.0000E+00  0.1382E+01
     -3.249  0.0000E+00  0.1382E+01
     -3.168  0.2267E-14  0.1382E+01
     -3.088  0.2917E+01  0.1618E+01
     -3.007  0.0000E+00  0.1618E+01
     -2.926  0.3411E-01  0.1620E+01
     -2.846  0.4342E+01  0.1971E+01
     -2.765  0.0000E+00  0.1971E+01
     -2.684  0.0000E+00  0.1971E+01
     -2.604  0.0000E+00  0.1971E+01
     -2.523  0.0000E+00  0.1971E+01
     -2.443  0.0000E+00  0.1971E+01
     -2.362  0.0000E+00  0.1971E+01
     -2.281  0.0000E+00  0.1971E+01
     -2.201  0.0000E+00  0.1971E+01
     -2.120  0.0000E+00  0.1971E+01
     -2.039  0.3136E+00  0.1996E+01
     -1.959  0.4157E+00  0.2029E+01
     -1.878  0.0000E+00  0.2029E+01
     -1.797  0.0000E+00  0.2029E+01
     -1.717  0.0000E+00  0.2029E+01
     -1.636  0.0000E+00  0.2029E+01
     -1.555  0.0000E+00  0.2029E+01
     -1.475  0.0000E+00  0.2029E+01
     -1.394  0.0000E+00  0.2029E+01
     -1.313  0.0000E+00  0.2029E+01
     -1.233  0.3991E-02  0.2030E+01
     -1.152  0.4822E+00  0.2069E+01
     -1.071  0.1378E+01  0.2180E+01
     -0.991  0.1076E+01  0.2391E+01
     -0.910  0.0000E+00  0.2422E+01
     -0.829  0.2871E+01  0.2653E+01
     -0.749  0.2917E+01  0.2892E+01
     -0.668  0.0000E+00  0.2892E+01
     -0.588  0.0000E+00  0.2892E+01
     -0.507  0.0000E+00  0.2892E+01
     -0.426  0.0000E+00  0.2892E+01
     -0.346  0.0000E+00  0.2892E+01
     -0.265  0.3146E-02  0.2892E+01
     -0.184  0.2914E+01  0.3127E+01
     -0.104  0.0000E+00  0.3127E+01
     -0.023  0.0000E+00  0.3127E+01
      0.058  0.0000E+00  0.3127E+01
      0.138  0.2545E+01  0.3333E+01
      0.219  0.0000E+00  0.3363E+01
      0.300  0.0000E+00  0.3363E+01
      0.380  0.1565E-09  0.3363E+01
      0.461  0.9725E+00  0.3441E+01
      0.542  0.0000E+00  0.3441E+01
      0.622  0.0000E+00  0.3441E+01
      0.703  0.0000E+00  0.3441E+01
      0.784  0.7284E+00  0.3500E+01
      0.864  0.0000E+00  0.3500E+01
      0.945  0.0000E+00  0.3500E+01
      1.025  0.0000E+00  0.3500E+01
      1.106  0.0000E+00  0.3500E+01
      1.187  0.0000E+00  0.3500E+01
      1.267  0.0000E+00  0.3500E+01
      1.348  0.4362E+01  0.3852E+01
      1.429  0.0000E+00  0.3853E+01
      1.509  0.0000E+00  0.3853E+01
      1.590  0.0000E+00  0.3853E+01
      1.671  0.0000E+00  0.3853E+01
      1.751  0.2833E+01  0.4081E+01
      1.832  0.0000E+00  0.4088E+01
      1.913  0.0000E+00  0.4088E+01
      1.993  0.4535E-14  0.4088E+01
      2.074  0.1458E+01  0.4206E+01
      2.155  0.2918E+01  0.4441E+01
      2.235  0.2917E+01  0.4676E+01
      2.316  0.0000E+00  0.4676E+01
      2.397  0.0000E+00  0.4676E+01
      2.477  0.0000E+00  0.4676E+01
      2.558  0.0000E+00  0.4676E+01
      2.638  0.0000E+00  0.4676E+01
      2.719  0.2765E+01  0.4899E+01
      2.800  0.0000E+00  0.4912E+01
      2.880  0.1474E-08  0.4912E+01
      2.961  0.7395E+00  0.4971E+01
      3.042  0.5825E+01  0.5441E+01
      3.122  0.0000E+00  0.5441E+01
      3.203  0.2095E-01  0.5443E+01
      3.284  0.2896E+01  0.5676E+01
      3.364  0.2754E+01  0.5899E+01
      3.445  0.9593E+00  0.5990E+01
      3.526  0.2917E+01  0.6225E+01
      3.606  0.3239E-15  0.6225E+01
      3.687  0.1458E+01  0.6343E+01
      3.768  0.2146E+01  0.6516E+01
      3.848  0.0000E+00  0.6637E+01
      3.929  0.0000E+00  0.6637E+01
      4.010  0.2684E+01  0.6854E+01
      4.090  0.2904E+01  0.7108E+01
      4.171  0.0000E+00  0.7108E+01
      4.252  0.0000E+00  0.7108E+01
      4.332  0.0000E+00  0.7108E+01
      4.413  0.0000E+00  0.7108E+01
      4.493  0.2816E+01  0.7335E+01
      4.574  0.4767E+00  0.7382E+01
      4.655  0.1954E+01  0.7539E+01
      4.735  0.2238E-08  0.7539E+01
      4.816  0.1945E+01  0.7696E+01
      4.897  0.0000E+00  0.7696E+01
      4.977  0.0000E+00  0.7696E+01
      5.058  0.0000E+00  0.7696E+01
      5.139  0.0000E+00  0.7696E+01
      5.219  0.1124E+01  0.7787E+01
      5.300  0.2987E-03  0.7814E+01
      5.381  0.1945E+01  0.7971E+01
      5.461  0.0000E+00  0.7971E+01
      5.542  0.0000E+00  0.7971E+01
      5.623  0.0000E+00  0.7971E+01
      5.703  0.0000E+00  0.7971E+01
      5.784  0.3081E+00  0.7995E+01
      5.865  0.0000E+00  0.8000E+01
      5.945  0.0000E+00  0.8000E+01
      6.026  0.0000E+00  0.8000E+01
      6.106  0.0000E+00  0.8000E+01
      6.187  0.0000E+00  0.8000E+01
      6.268  0.0000E+00  0.8000E+01
      6.348  0.5475E-04  0.8000E+01
      6.429  0.1459E+01  0.8118E+01
      6.510  0.0000E+00  0.8118E+01
      6.590  0.0000E+00  0.8118E+01
      6.671  0.0000E+00  0.8118E+01
      6.752  0.2901E+01  0.8352E+01
      6.832  0.0000E+00  0.8353E+01
      6.913  0.0000E+00  0.8353E+01
      6.994  0.0000E+00  0.8353E+01
      7.074  0.0000E+00  0.8353E+01
      7.155  0.5111E-11  0.8353E+01
      7.236  0.7962E+00  0.8417E+01
      7.316  0.1149E+01  0.8510E+01
      7.397  0.1252E+00  0.8520E+01
      7.478  0.1577E+01  0.8647E+01
      7.558  0.0000E+00  0.8647E+01
      7.639  0.1527E-01  0.8648E+01
      7.719  0.4236E+01  0.8990E+01
      7.800  0.2313E+01  0.9176E+01
      7.881  0.0000E+00  0.9176E+01
      7.961  0.0000E+00  0.9176E+01
      8.042  0.8346E+00  0.9244E+01
      8.123  0.2474E-01  0.9257E+01
      8.203  0.2893E+01  0.9490E+01
      8.284  0.1341E-01  0.9491E+01
      8.365  0.3513E+00  0.9520E+01
      8.445  0.2917E+01  0.9755E+01
      8.526  0.1931E-02  0.9755E+01
      8.607  0.2916E+01  0.9990E+01
      8.687  0.3028E-13  0.9990E+01
      8.768  0.1459E+01  0.1011E+02
      8.849  0.0000E+00  0.1011E+02
      8.929  0.4777E-01  0.1011E+02
      9.010  0.2019E+01  0.1027E+02
      9.091  0.3890E+01  0.1059E+02
      9.171  0.0000E+00  0.1059E+02
      9.252  0.3450E+01  0.1087E+02
      9.333  0.1459E+01  0.1110E+02
      9.413  0.2910E+01  0.1133E+02
      9.494  0.2100E-10  0.1133E+02
      9.574  0.1459E+01  0.1145E+02
      9.655  0.0000E+00  0.1145E+02
      9.736  0.4967E-01  0.1145E+02
      9.816  0.8283E+01  0.1212E+02
      9.897  0.2770E-06  0.1216E+02
      9.978  0.6531E+01  0.1268E+02
     10.058  0.1979E-01  0.1269E+02
     10.139  0.1439E+01  0.1280E+02
     10.220  0.1073E+01  0.1289E+02
     10.300  0.1844E+01  0.1304E+02
     10.381  0.2917E+01  0.1327E+02
     10.462  0.0000E+00  0.1327E+02
     10.542  0.0000E+00  0.1327E+02
     10.623  0.0000E+00  0.1327E+02
     10.704  0.0000E+00  0.1327E+02
     10.784  0.5320E-01  0.1328E+02
     10.865  0.2864E+01  0.1351E+02
     10.946  0.0000E+00  0.1351E+02
     11.026  0.0000E+00  0.1351E+02
     11.107  0.9502E+00  0.1359E+02
     11.187  0.0000E+00  0.1359E+02
     11.268  0.3239E-14  0.1359E+02
     11.349  0.1458E+01  0.1371E+02
     11.429  0.2130E-12  0.1371E+02
     11.510  0.1459E+01  0.1382E+02
     11.591  0.0000E+00  0.1382E+02
     11.671  0.0000E+00  0.1382E+02
     11.752  0.8746E-05  0.1382E+02
     11.833  0.2917E+01  0.1406E+02
     11.913  0.0000E+00  0.1406E+02
     11.994  0.0000E+00  0.1406E+02
     12.075  0.1861E-03  0.1406E+02
     12.155  0.2917E+01  0.1429E+02
     12.236  0.4376E+01  0.1465E+02
     12.317  0.0000E+00  0.1465E+02
     12.397  0.0000E+00  0.1465E+02
     12.478  0.0000E+00  0.1465E+02
     12.559  0.0000E+00  0.1465E+02
     12.639  0.0000E+00  0.1465E+02
     12.720  0.1930E-05  0.1465E+02
     12.800  0.4376E+01  0.1500E+02
     12.881  0.0000E+00  0.1500E+02
     12.962  0.1768E+01  0.1514E+02
     13.042  0.2608E+01  0.1535E+02
     13.123  0.1144E-04  0.1535E+02
     13.204  0.5835E+01  0.1582E+02
     13.284  0.2580E+00  0.1584E+02
     13.365  0.0000E+00  0.1586E+02
     13.446  0.2639E+00  0.1588E+02
     13.526  0.7086E+00  0.1594E+02
     13.607  0.0000E+00  0.1594E+02
     13.688  0.0000E+00  0.1594E+02
     13.768  0.0000E+00  0.1594E+02
     13.849  0.0000E+00  0.1594E+02
     13.930  0.0000E+00  0.1594E+02
     14.010  0.0000E+00  0.1594E+02
     14.091  0.0000E+00  0.1594E+02
     14.172  0.0000E+00  0.1594E+02
     14.252  0.0000E+00  0.1594E+02
     14.333  0.0000E+00  0.1594E+02
     14.414  0.0000E+00  0.1594E+02
     14.494  0.0000E+00  0.1594E+02
     14.575  0.0000E+00  0.1594E+02
     14.655  0.0000E+00  0.1594E+02
     14.736  0.0000E+00  0.1594E+02
     14.817  0.0000E+00  0.1594E+02
     14.897  0.0000E+00  0.1594E+02
     14.978  0.0000E+00  0.1594E+02
     15.059  0.0000E+00  0.1594E+02
     15.139  0.0000E+00  0.1594E+02
     15.220  0.0000E+00  0.1594E+02
     15.301  0.0000E+00  0.1594E+02
     15.381  0.0000E+00  0.1594E+02
     15.462  0.0000E+00  0.1594E+02
     15.543  0.0000E+00  0.1594E+02
     15.623  0.0000E+00  0.1594E+02
     15.704  0.6304E-11  0.1594E+02
     15.785  0.7294E+00  0.1600E+02
     15.865  0.0000E+00  0.1600E+02
     15.946  0.0000E+00  0.1600E+02
     16.027  0.0000E+00  0.1600E+02
     16.107  0.0000E+00  0.1600E+02
     16.188  0.0000E+00  0.1600E+02
     16.268  0.0000E+00  0.1600E+02
     16.349  0.0000E+00  0.1600E+02
     16.430  0.0000E+00  0.1600E+02
     16.510  0.0000E+00  0.1600E+02
     16.591  0.0000E+00  0.1600E+02
     16.672  0.0000E+00  0.1600E+02
     16.752  0.0000E+00  0.1600E+02
     16.833  0.0000E+00  0.1600E+02
     16.914  0.0000E+00  0.1600E+02
     16.91367708     -7.28156438  301      5.87459816      1.00000000
     -7.282  0.0000E+00  0.0000E+00  0.0000E+00
     -7.201  0.0000E+00  0.0000E+00  0.0000E+00
     -7.120  0.0000E+00  0.0000E+00  0.0000E+00
     -7.040  0.0000E+00  0.0000E+00  0.0000E+00
     -6.959  0.0000E+00  0.0000E+00  0.0000E+00
     -6.878  0.0000E+00  0.0000E+00  0.0000E+00
     -6.798  0.0000E+00  0.0000E+00  0.0000E+00
     -6.717  0.0000E+00  0.0000E+00  0.0000E+00
     -6.636  0.0000E+00  0.0000E+00  0.0000E+00
     -6.556  0.0000E+00  0.0000E+00  0.0000E+00
     -6.475  0.0000E+00  0.0000E+00  0.0000E+00
     -6.394  0.0000E+00  0.0000E+00  0.0000E+00
     -6.314  0.0000E+00  0.0000E+00  0.0000E+00
     -6.233  0.5104E-14  0.1788E-28  0.0000E+00
     -6.152  0.2602E-01  0.9119E-16  0.0000E+00
     -6.072  0.0000E+00  0.0000E+00  0.0000E+00
     -5.991  0.0000E+00  0.0000E+00  0.0000E+00
     -5.911  0.0000E+00  0.0000E+00  0.0000E+00
     -5.830  0.1888E-01  0.3441E-03  0.0000E+00
     -5.749  0.1877E+00  0.3420E-02  0.0000E+00
     -5.669  0.1543E+00  0.3895E-02  0.0000E+00
     -5.588  0.0000E+00  0.0000E+00  0.0000E+00
     -5.507  0.0000E+00  0.0000E+00  0.0000E+00
     -5.427  0.0000E+00  0.0000E+00  0.0000E+00
     -5.346  0.0000E+00  0.0000E+00  0.0000E+00
     -5.265  0.3251E-06  0.1522E-07  0.0000E+00
     -5.185  0.3069E+00  0.1437E-01  0.0000E+00
     -5.104  0.0000E+00  0.0000E+00  0.0000E+00
     -5.023  0.0000E+00  0.0000E+00  0.0000E+00
     -4.943  0.0000E+00  0.0000E+00  0.0000E+00
     -4.862  0.6085E+00  0.3923E-01  0.0000E+00
     -4.781  0.2058E+00  0.1236E-01  0.0000E+00
     -4.701  0.0000E+00  0.0000E+00  0.0000E+00
     -4.620  0.0000E+00  0.0000E+00  0.0000E+00
     -4.539  0.0000E+00  0.0000E+00  0.0000E+00
     -4.459  0.0000E+00  0.0000E+00  0.0000E+00
     -4.378  0.0000E+00  0.0000E+00  0.0000E+00
     -4.297  0.3098E-03  0.3159E-04  0.0000E+00
     -4.217  0.1491E+00  0.1520E-01  0.0000E+00
     -4.136  0.0000E+00  0.0000E+00  0.0000E+00
     -4.056  0.6171E+00  0.5349E-01  0.0000E+00
     -3.975  0.0000E+00  0.0000E+00  0.0000E+00
     -3.894  0.1827E+00  0.1994E-01  0.0000E+00
     -3.814  0.5343E+00  0.5291E-01  0.0000E+00
     -3.733  0.8061E-11  0.7117E-12  0.0000E+00
     -3.652  0.6374E+00  0.5627E-01  0.0000E+00
     -3.572  0.0000E+00  0.0000E+00  0.0000E+00
     -3.491  0.0000E+00  0.0000E+00  0.0000E+00
     -3.410  0.0000E+00  0.0000E+00  0.0000E+00
     -3.330  0.0000E+00  0.0000E+00  0.0000E+00
     -3.249  0.0000E+00  0.0000E+00  0.0000E+00
     -3.168  0.4639E-15  0.7108E-16  0.0000E+00
     -3.088  0.5967E+00  0.9143E-01  0.0000E+00
     -3.007  0.0000E+00  0.0000E+00  0.0000E+00
     -2.926  0.7367E-02  0.9533E-03  0.0000E+00
     -2.846  0.9418E+00  0.1197E+00  0.0000E+00
     -2.765  0.0000E+00  0.0000E+00  0.0000E+00
     -2.684  0.0000E+00  0.0000E+00  0.0000E+00
     -2.604  0.0000E+00  0.0000E+00  0.0000E+00
     -2.523  0.0000E+00  0.0000E+00  0.0000E+00
     -2.443  0.0000E+00  0.0000E+00  0.0000E+00
     -2.362  0.0000E+00  0.0000E+00  0.0000E+00
     -2.281  0.0000E+00  0.0000E+00  0.0000E+00
     -2.201  0.0000E+00  0.0000E+00  0.0000E+00
     -2.120  0.0000E+00  0.0000E+00  0.0000E+00
     -2.039  0.6108E-01  0.1429E-01  0.0000E+00
     -1.959  0.8096E-01  0.1895E-01  0.0000E+00
     -1.878  0.0000E+00  0.0000E+00  0.0000E+00
     -1.797  0.0000E+00  0.0000E+00  0.0000E+00
     -1.717  0.0000E+00  0.0000E+00  0.0000E+00
     -1.636  0.0000E+00  0.0000E+00  0.0000E+00
     -1.555  0.0000E+00  0.0000E+00  0.0000E+00
     -1.475  0.0000E+00  0.0000E+00  0.0000E+00
     -1.394  0.0000E+00  0.0000E+00  0.0000E+00
     -1.313  0.0000E+00  0.0000E+00  0.0000E+00
     -1.233  0.3923E-03  0.3769E-03  0.0000E+00
     -1.152  0.4740E-01  0.4554E-01  0.0000E+00
     -1.071  0.2296E+00  0.9238E-01  0.0000E+00
     -0.991  0.1909E+00  0.6778E-01  0.0000E+00
     -0.910  0.0000E+00  0.0000E+00  0.0000E+00
     -0.829  0.3494E+00  0.2513E+00  0.0000E+00
     -0.749  0.5456E+00  0.1775E+00  0.0000E+00
     -0.668  0.0000E+00  0.0000E+00  0.0000E+00
     -0.588  0.0000E+00  0.0000E+00  0.0000E+00
     -0.507  0.0000E+00  0.0000E+00  0.0000E+00
     -0.426  0.0000E+00  0.0000E+00  0.0000E+00
     -0.346  0.0000E+00  0.0000E+00  0.0000E+00
     -0.265  0.3984E-03  0.2845E-03  0.0000E+00
     -0.184  0.3691E+00  0.2636E+00  0.0000E+00
     -0.104  0.0000E+00  0.0000E+00  0.0000E+00
     -0.023  0.0000E+00  0.0000E+00  0.0000E+00
      0.058  0.0000E+00  0.0000E+00  0.0000E+00
      0.138  0.4370E+00  0.1940E+00  0.0000E+00
      0.219  0.0000E+00  0.0000E+00  0.0000E+00
      0.300  0.0000E+00  0.0000E+00  0.0000E+00
      0.380  0.1659E-10  0.1625E-10  0.0000E+00
      0.461  0.1031E+00  0.1010E+00  0.0000E+00
      0.542  0.0000E+00  0.0000E+00  0.0000E+00
      0.622  0.0000E+00  0.0000E+00  0.0000E+00
      0.703  0.0000E+00  0.0000E+00  0.0000E+00
      0.784  0.1286E+00  0.5750E-01  0.0000E+00
      0.864  0.0000E+00  0.0000E+00  0.0000E+00
      0.945  0.0000E+00  0.0000E+00  0.0000E+00
      1.025  0.0000E+00  0.0000E+00  0.0000E+00
      1.106  0.0000E+00  0.0000E+00  0.0000E+00
      1.187  0.0000E+00  0.0000E+00  0.0000E+00
      1.267  0.0000E+00  0.0000E+00  0.0000E+00
      1.348  0.3792E+00  0.5233E+00  0.0000E+00
      1.429  0.0000E+00  0.0000E+00  0.0000E+00
      1.509  0.0000E+00  0.0000E+00  0.0000E+00
      1.590  0.0000E+00  0.0000E+00  0.0000E+00
      1.671  0.0000E+00  0.0000E+00  0.0000E+00
      1.751  0.5806E-01  0.4257E+00  0.0000E+00
      1.832  0.0000E+00  0.0000E+00  0.0000E+00
      1.913  0.0000E+00  0.0000E+00  0.0000E+00
      1.993  0.5646E-15  0.5124E-15  0.0000E+00
      2.074  0.1816E+00  0.1648E+00  0.0000E+00
      2.155  0.1693E-01  0.4786E+00  0.0000E+00
      2.235  0.3500E-01  0.4657E+00  0.0000E+00
      2.316  0.0000E+00  0.0000E+00  0.0000E+00
      2.397  0.0000E+00  0.0000E+00  0.0000E+00
      2.477  0.0000E+00  0.0000E+00  0.0000E+00
      2.558  0.0000E+00  0.0000E+00  0.0000E+00
      2.638  0.0000E+00  0.0000E+00  0.0000E+00
      2.719  0.9822E-01  0.4308E+00  0.0000E+00
      2.800  0.0000E+00  0.0000E+00  0.0000E+00
      2.880  0.5232E-27  0.2935E-09  0.0000E+00
      2.961  0.4395E-03  0.1468E+00  0.0000E+00
      3.042  0.1296E+00  0.9775E+00  0.0000E+00
      3.122  0.0000E+00  0.0000E+00  0.0000E+00
      3.203  0.1383E-17  0.4204E-02  0.0000E+00
      3.284  0.1913E-15  0.5814E+00  0.0000E+00
      3.364  0.1866E-01  0.5060E+00  0.0000E+00
      3.445  0.7456E-01  0.1375E+00  0.0000E+00
      3.526  0.1310E-01  0.5415E+00  0.0000E+00
      3.606  0.6972E-31  0.6645E-16  0.0000E+00
      3.687  0.5566E-08  0.2991E+00  0.0000E+00
      3.768  0.1400E+00  0.3341E+00  0.0000E+00
      3.848  0.0000E+00  0.0000E+00  0.0000E+00
      3.929  0.0000E+00  0.0000E+00  0.0000E+00
      4.010  0.1289E-13  0.5595E+00  0.0000E+00
      4.090  0.7889E-15  0.5907E+00  0.0000E+00
      4.171  0.0000E+00  0.0000E+00  0.0000E+00
      4.252  0.0000E+00  0.0000E+00  0.0000E+00
      4.332  0.0000E+00  0.0000E+00  0.0000E+00
      4.413  0.0000E+00  0.0000E+00  0.0000E+00
      4.493  0.4899E-16  0.6066E+00  0.0000E+00
      4.574  0.1209E-15  0.9969E-01  0.0000E+00
      4.655  0.5508E-15  0.4111E+00  0.0000E+00
      4.735  0.1260E-25  0.4881E-09  0.0000E+00
      4.816  0.1095E-16  0.4241E+00  0.0000E+00
      4.897  0.0000E+00  0.0000E+00  0.0000E+00
      4.977  0.0000E+00  0.0000E+00  0.0000E+00
      5.058  0.0000E+00  0.0000E+00  0.0000E+00
      5.139  0.0000E+00  0.0000E+00  0.0000E+00
      5.219  0.3521E-15  0.2503E+00  0.0000E+00
      5.300  0.2240E-19  0.6428E-04  0.0000E+00
      5.381  0.1458E-15  0.4185E+00  0.0000E+00
      5.461  0.0000E+00  0.0000E+00  0.0000E+00
      5.542  0.0000E+00  0.0000E+00  0.0000E+00
      5.623  0.0000E+00  0.0000E+00  0.0000E+00
      5.703  0.0000E+00  0.0000E+00  0.0000E+00
      5.784  0.5815E-13  0.6735E-01  0.0000E+00
      5.865  0.0000E+00  0.0000E+00  0.0000E+00
      5.945  0.0000E+00  0.0000E+00  0.0000E+00
      6.026  0.0000E+00  0.0000E+00  0.0000E+00
      6.106  0.0000E+00  0.0000E+00  0.0000E+00
      6.187  0.0000E+00  0.0000E+00  0.0000E+00
      6.268  0.0000E+00  0.0000E+00  0.0000E+00
      6.348  0.2881E-05  0.1908E-05  0.0000E+00
      6.429  0.7627E-01  0.6719E-01  0.0000E+00
      6.510  0.0000E+00  0.0000E+00  0.0000E+00
      6.590  0.0000E+00  0.0000E+00  0.0000E+00
      6.671  0.0000E+00  0.0000E+00  0.0000E+00
      6.752  0.1479E+00  0.1267E+00  0.0000E+00
      6.832  0.0000E+00  0.0000E+00  0.0000E+00
      6.913  0.0000E+00  0.0000E+00  0.0000E+00
      6.994  0.0000E+00  0.0000E+00  0.0000E+00
      7.074  0.0000E+00  0.0000E+00  0.0000E+00
      7.155  0.9643E-12  0.9655E-13  0.0000E+00
      7.236  0.1087E+00  0.2338E-01  0.0000E+00
      7.316  0.6298E-01  0.5258E-01  0.0000E+00
      7.397  0.3831E-02  0.1287E-01  0.0000E+00
      7.478  0.1890E+00  0.9262E-01  0.0000E+00
      7.558  0.0000E+00  0.0000E+00  0.0000E+00
      7.639  0.6289E-03  0.1273E-02  0.0000E+00
      7.719  0.1894E+00  0.3169E+00  0.0000E+00
      7.800  0.1477E+00  0.1385E+00  0.0000E+00
      7.881  0.0000E+00  0.0000E+00  0.0000E+00
      7.961  0.0000E+00  0.0000E+00  0.0000E+00
      8.042  0.1084E+00  0.6081E-01  0.0000E+00
      8.123  0.2038E-02  0.1591E-02  0.0000E+00
      8.203  0.2383E+00  0.1860E+00  0.0000E+00
      8.284  0.3814E-13  0.2060E-02  0.0000E+00
      8.365  0.2976E-07  0.5393E-01  0.0000E+00
      8.445  0.1007E+00  0.2132E+00  0.0000E+00
      8.526  0.5698E-04  0.1987E-03  0.0000E+00
      8.607  0.8604E-01  0.3000E+00  0.0000E+00
      8.687  0.2953E-14  0.2815E-14  0.0000E+00
      8.768  0.1422E+00  0.1356E+00  0.0000E+00
      8.849  0.0000E+00  0.0000E+00  0.0000E+00
      8.929  0.1196E-13  0.7465E-02  0.0000E+00
      9.010  0.4378E-01  0.2965E+00  0.0000E+00
      9.091  0.2361E-01  0.3455E+00  0.0000E+00
      9.171  0.0000E+00  0.0000E+00  0.0000E+00
      9.252  0.9504E-01  0.3597E+00  0.0000E+00
      9.333  0.3628E-11  0.2218E+00  0.0000E+00
      9.413  0.6192E-01  0.1759E+00  0.0000E+00
      9.494  0.6515E-12  0.2584E-11  0.0000E+00
      9.574  0.4525E-01  0.1795E+00  0.0000E+00
      9.655  0.0000E+00  0.0000E+00  0.0000E+00
      9.736  0.3602E-02  0.4174E-02  0.0000E+00
      9.816  0.4978E+00  0.7873E+00  0.0000E+00
      9.897  0.1755E-07  0.2886E-07  0.0000E+00
      9.978  0.2679E+00  0.6965E+00  0.0000E+00
     10.058  0.1216E-09  0.3344E-02  0.0000E+00
     10.139  0.8841E-08  0.2431E+00  0.0000E+00
     10.220  0.2544E-01  0.1059E+00  0.0000E+00
     10.300  0.4373E-01  0.1821E+00  0.0000E+00
     10.381  0.1579E-08  0.3189E+00  0.0000E+00
     10.462  0.0000E+00  0.0000E+00  0.0000E+00
     10.542  0.0000E+00  0.0000E+00  0.0000E+00
     10.623  0.0000E+00  0.0000E+00  0.0000E+00
     10.704  0.0000E+00  0.0000E+00  0.0000E+00
     10.784  0.7989E-10  0.7584E-02  0.0000E+00
     10.865  0.4301E-08  0.4083E+00  0.0000E+00
     10.946  0.0000E+00  0.0000E+00  0.0000E+00
     11.026  0.0000E+00  0.0000E+00  0.0000E+00
     11.107  0.1601E+00  0.1142E+00  0.0000E+00
     11.187  0.0000E+00  0.0000E+00  0.0000E+00
     11.268  0.2259E-15  0.3156E-15  0.0000E+00
     11.349  0.1017E+00  0.1421E+00  0.0000E+00
     11.429  0.1253E-14  0.1666E-13  0.0000E+00
     11.510  0.8577E-02  0.1141E+00  0.0000E+00
     11.591  0.0000E+00  0.0000E+00  0.0000E+00
     11.671  0.0000E+00  0.0000E+00  0.0000E+00
     11.752  0.1681E-06  0.7649E-06  0.0000E+00
     11.833  0.5607E-01  0.2552E+00  0.0000E+00
     11.913  0.0000E+00  0.0000E+00  0.0000E+00
     11.994  0.0000E+00  0.0000E+00  0.0000E+00
     12.075  0.3854E-05  0.1945E-04  0.0000E+00
     12.155  0.6040E-01  0.3049E+00  0.0000E+00
     12.236  0.9872E-01  0.5909E+00  0.0000E+00
     12.317  0.0000E+00  0.0000E+00  0.0000E+00
     12.397  0.0000E+00  0.0000E+00  0.0000E+00
     12.478  0.0000E+00  0.0000E+00  0.0000E+00
     12.559  0.0000E+00  0.0000E+00  0.0000E+00
     12.639  0.0000E+00  0.0000E+00  0.0000E+00
     12.720  0.8722E-07  0.2665E-06  0.0000E+00
     12.800  0.8219E-01  0.6427E+00  0.0000E+00
     12.881  0.0000E+00  0.0000E+00  0.0000E+00
     12.962  0.4439E-01  0.2228E+00  0.0000E+00
     13.042  0.5175E-01  0.3522E+00  0.0000E+00
     13.123  0.4598E-06  0.1644E-05  0.0000E+00
     13.204  0.1209E+00  0.7996E+00  0.0000E+00
     13.284  0.1601E-02  0.1354E-01  0.0000E+00
     13.365  0.0000E+00  0.0000E+00  0.0000E+00
     13.446  0.3820E-02  0.3215E-01  0.0000E+00
     13.526  0.1025E-01  0.8632E-01  0.0000E+00
     13.607  0.0000E+00  0.0000E+00  0.0000E+00
     13.688  0.0000E+00  0.0000E+00  0.0000E+00
     13.768  0.0000E+00  0.0000E+00  0.0000E+00
     13.849  0.0000E+00  0.0000E+00  0.0000E+00
     13.930  0.0000E+00  0.0000E+00  0.0000E+00
     14.010  0.0000E+00  0.0000E+00  0.0000E+00
     14.091  0.0000E+00  0.0000E+00  0.0000E+00
     14.172  0.0000E+00  0.0000E+00  0.0000E+00
     14.252  0.0000E+00  0.0000E+00  0.0000E+00
     14.333  0.0000E+00  0.0000E+00  0.0000E+00
     14.414  0.0000E+00  0.0000E+00  0.0000E+00
     14.494  0.0000E+00  0.0000E+00  0.0000E+00
     14.575  0.0000E+00  0.0000E+00  0.0000E+00
     14.655  0.0000E+00  0.0000E+00  0.0000E+00
     14.736  0.0000E+00  0.0000E+00  0.0000E+00
     14.817  0.0000E+00  0.0000E+00  0.0000E+00
     14.897  0.0000E+00  0.0000E+00  0.0000E+00
     14.978  0.0000E+00  0.0000E+00  0.0000E+00
     15.059  0.0000E+00  0.0000E+00  0.0000E+00
     15.139  0.0000E+00  0.0000E+00  0.0000E+00
     15.220  0.0000E+00  0.0000E+00  0.0000E+00
     15.301  0.0000E+00  0.0000E+00  0.0000E+00
     15.381  0.0000E+00  0.0000E+00  0.0000E+00
     15.462  0.0000E+00  0.0000E+00  0.0000E+00
     15.543  0.0000E+00  0.0000E+00  0.0000E+00
     15.623  0.0000E+00  0.0000E+00  0.0000E+00
     15.704  0.1392E-16  0.1532E-11  0.0000E+00
     15.785  0.1905E-05  0.1772E+00  0.0000E+00
     15.865  0.0000E+00  0.0000E+00  0.0000E+00
     15.946  0.0000E+00  0.0000E+00  0.0000E+00
     16.027  0.0000E+00  0.0000E+00  0.0000E+00
     16.107  0.0000E+00  0.0000E+00  0.0000E+00
     16.188  0.0000E+00  0.0000E+00  0.0000E+00
     16.268  0.0000E+00  0.0000E+00  0.0000E+00
     16.349  0.0000E+00  0.0000E+00  0.0000E+00
     16.430  0.0000E+00  0.0000E+00  0.0000E+00
     16.510  0.0000E+00  0.0000E+00  0.0000E+00
     16.591  0.0000E+00  0.0000E+00  0.0000E+00
     16.672  0.0000E+00  0.0000E+00  0.0000E+00
     16.752  0.0000E+00  0.0000E+00  0.0000E+00
     16.833  0.0000E+00  0.0000E+00  0.0000E+00
     16.914  0.0000E+00  0.0000E+00  0.0000E+00
     16.91367708     -7.28156438  301      5.87459816      1.00000000
     -7.282  0.0000E+00  0.0000E+00  0.0000E+00
     -7.201  0.0000E+00  0.0000E+00  0.0000E+00
     -7.120  0.0000E+00  0.0000E+00  0.0000E+00
     -7.040  0.0000E+00  0.0000E+00  0.0000E+00
     -6.959  0.0000E+00  0.0000E+00  0.0000E+00
     -6.878  0.0000E+00  0.0000E+00  0.0000E+00
     -6.798  0.0000E+00  0.0000E+00  0.0000E+00
     -6.717  0.0000E+00  0.0000E+00  0.0000E+00
     -6.636  0.0000E+00  0.0000E+00  0.0000E+00
     -6.556  0.0000E+00  0.0000E+00  0.0000E+00
     -6.475  0.0000E+00  0.0000E+00  0.0000E+00
     -6.394  0.0000E+00  0.0000E+00  0.0000E+00
     -6.314  0.0000E+00  0.0000E+00  0.0000E+00
     -6.233  0.5104E-14  0.2703E-28  0.0000E+00
     -6.152  0.2602E-01  0.1378E-15  0.0000E+00
     -6.072  0.0000E+00  0.0000E+00  0.0000E+00
     -5.991  0.0000E+00  0.0000E+00  0.0000E+00
     -5.911  0.0000E+00  0.0000E+00  0.0000E+00
     -5.830  0.1888E-01  0.3441E-03  0.0000E+00
     -5.749  0.1877E+00  0.3420E-02  0.0000E+00
     -5.669  0.1543E+00  0.3895E-02  0.0000E+00
     -5.588  0.0000E+00  0.0000E+00  0.0000E+00
     -5.507  0.0000E+00  0.0000E+00  0.0000E+00
     -5.427  0.0000E+00  0.0000E+00  0.0000E+00
     -5.346  0.0000E+00  0.0000E+00  0.0000E+00
     -5.265  0.3251E-06  0.1522E-07  0.0000E+00
     -5.185  0.3069E+00  0.1437E-01  0.0000E+00
     -5.104  0.0000E+00  0.0000E+00  0.0000E+00
     -5.023  0.0000E+00  0.0000E+00  0.0000E+00
     -4.943  0.0000E+00  0.0000E+00  0.0000E+00
     -4.862  0.6085E+00  0.3923E-01  0.0000E+00
     -4.781  0.2058E+00  0.1236E-01  0.0000E+00
     -4.701  0.0000E+00  0.0000E+00  0.0000E+00
     -4.620  0.0000E+00  0.0000E+00  0.0000E+00
     -4.539  0.0000E+00  0.0000E+00  0.0000E+00
     -4.459  0.0000E+00  0.0000E+00  0.0000E+00
     -4.378  0.0000E+00  0.0000E+00  0.0000E+00
     -4.297  0.3098E-03  0.3159E-04  0.0000E+00
     -4.217  0.1491E+00  0.1520E-01  0.0000E+00
     -4.136  0.0000E+00  0.0000E+00  0.0000E+00
     -4.056  0.6171E+00  0.5349E-01  0.0000E+00
     -3.975  0.0000E+00  0.0000E+00  0.0000E+00
     -3.894  0.1827E+00  0.1994E-01  0.0000E+00
     -3.814  0.5343E+00  0.5291E-01  0.0000E+00
     -3.733  0.8061E-11  0.7117E-12  0.0000E+00
     -3.652  0.6374E+00  0.5627E-01  0.0000E+00
     -3.572  0.0000E+00  0.0000E+00  0.0000E+00
     -3.491  0.0000E+00  0.0000E+00  0.0000E+00
     -3.410  0.0000E+00  0.0000E+00  0.0000E+00
     -3.330  0.0000E+00  0.0000E+00  0.0000E+00
     -3.249  0.0000E+00  0.0000E+00  0.0000E+00
     -3.168  0.4639E-15  0.7108E-16  0.0000E+00
     -3.088  0.5967E+00  0.9143E-01  0.0000E+00
     -3.007  0.0000E+00  0.0000E+00  0.0000E+00
     -2.926  0.7367E-02  0.9533E-03  0.0000E+00
     -2.846  0.9418E+00  0.1197E+00  0.0000E+00
     -2.765  0.0000E+00  0.0000E+00  0.0000E+00
     -2.684  0.0000E+00  0.0000E+00  0.0000E+00
     -2.604  0.0000E+00  0.0000E+00  0.0000E+00
     -2.523  0.0000E+00  0.0000E+00  0.0000E+00
     -2.443  0.0000E+00  0.0000E+00  0.0000E+00
     -2.362  0.0000E+00  0.0000E+00  0.0000E+00
     -2.281  0.0000E+00  0.0000E+00  0.0000E+00
     -2.201  0.0000E+00  0.0000E+00  0.0000E+00
     -2.120  0.0000E+00  0.0000E+00  0.0000E+00
     -2.039  0.6108E-01  0.1429E-01  0.0000E+00
     -1.959  0.8096E-01  0.1895E-01  0.0000E+00
     -1.878  0.0000E+00  0.0000E+00  0.0000E+00
     -1.797  0.0000E+00  0.0000E+00  0.0000E+00
     -1.717  0.0000E+00  0.0000E+00  0.0000E+00
     -1.636  0.0000E+00  0.0000E+00  0.0000E+00
     -1.555  0.0000E+00  0.0000E+00  0.0000E+00
     -1.475  0.0000E+00  0.0000E+00  0.0000E+00
     -1.394  0.0000E+00  0.0000E+00  0.0000E+00
     -1.313  0.0000E+00  0.0000E+00  0.0000E+00
     -1.233  0.3923E-03  0.3769E-03  0.0000E+00
     -1.152  0.4740E-01  0.4554E-01  0.0000E+00
     -1.071  0.2296E+00  0.9238E-01  0.0000E+00
     -0.991  0.1909E+00  0.6778E-01  0.0000E+00
     -0.910  0.0000E+00  0.0000E+00  0.0000E+00
     -0.829  0.3494E+00  0.2513E+00  0.0000E+00
     -0.749  0.5456E+00  0.1775E+00  0.0000E+00
     -0.668  0.0000E+00  0.0000E+00  0.0000E+00
     -0.588  0.0000E+00  0.0000E+00  0.0000E+00
     -0.507  0.0000E+00  0.0000E+00  0.0000E+00
     -0.426  0.0000E+00  0.0000E+00  0.0000E+00
     -0.346  0.0000E+00  0.0000E+00  0.0000E+00
     -0.265  0.3984E-03  0.2845E-03  0.0000E+00
     -0.184  0.3691E+00  0.2636E+00  0.0000E+00
     -0.104  0.0000E+00  0.0000E+00  0.0000E+00