  96  96   0   0
  0.2080188E+02  0.1257760E-08  0.1245754E-08  0.1274818E-08  0.5000000E-15
  1.000000000000000E-004
  CAR 
 MAPbI3-Cubic                            
      8.80492668    -18.99821637  301      1.13589305      1.00000000
    -18.998  0.0000E+00  0.0000E+00
    -18.906  0.0000E+00  0.0000E+00
    -18.813  0.0000E+00  0.0000E+00
    -18.720  0.0000E+00  0.0000E+00
    -18.628  0.0000E+00  0.0000E+00
    -18.535  0.0000E+00  0.0000E+00
    -18.442  0.0000E+00  0.0000E+00
    -18.349  0.0000E+00  0.0000E+00
    -18.257  0.0000E+00  0.0000E+00
    -18.164  0.0000E+00  0.0000E+00
    -18.071  0.0000E+00  0.0000E+00
    -17.979  0.0000E+00  0.0000E+00
    -17.886  0.0000E+00  0.0000E+00
    -17.793  0.0000E+00  0.0000E+00
    -17.701  0.0000E+00  0.8000E+01
    -17.608  0.0000E+00  0.8000E+01
    -17.515  0.0000E+00  0.1600E+02
    -17.423  0.0000E+00  0.1600E+02
    -17.330  0.0000E+00  0.1600E+02
    -17.237  0.0000E+00  0.1600E+02
    -17.145  0.0000E+00  0.1600E+02
    -17.052  0.0000E+00  0.1600E+02
    -16.959  0.0000E+00  0.1600E+02
    -16.867  0.0000E+00  0.1600E+02
    -16.774  0.0000E+00  0.1600E+02
    -16.681  0.0000E+00  0.1600E+02
    -16.589  0.0000E+00  0.1600E+02
    -16.496  0.0000E+00  0.1600E+02
    -16.403  0.0000E+00  0.1600E+02
    -16.311  0.0000E+00  0.1600E+02
    -16.218  0.0000E+00  0.1600E+02
    -16.125  0.0000E+00  0.1600E+02
    -16.033  0.0000E+00  0.1600E+02
    -15.940  0.0000E+00  0.1600E+02
    -15.847  0.0000E+00  0.1600E+02
    -15.755  0.0000E+00  0.1600E+02
    -15.662  0.0000E+00  0.1600E+02
    -15.569  0.0000E+00  0.1600E+02
    -15.476  0.0000E+00  0.1600E+02
    -15.384  0.0000E+00  0.1600E+02
    -15.291  0.0000E+00  0.1600E+02
    -15.198  0.4156E+02  0.4800E+02
    -15.106  0.0000E+00  0.9600E+02
    -15.013  0.0000E+00  0.9600E+02
    -14.920  0.0000E+00  0.9600E+02
    -14.828  0.0000E+00  0.9600E+02
    -14.735  0.0000E+00  0.9600E+02
    -14.642  0.0000E+00  0.9600E+02
    -14.550  0.0000E+00  0.9600E+02
    -14.457  0.0000E+00  0.9600E+02
    -14.364  0.0000E+00  0.9600E+02
    -14.272  0.0000E+00  0.9600E+02
    -14.179  0.0000E+00  0.9600E+02
    -14.086  0.0000E+00  0.9600E+02
    -13.994  0.0000E+00  0.9600E+02
    -13.901  0.0000E+00  0.9600E+02
    -13.808  0.0000E+00  0.9600E+02
    -13.716  0.0000E+00  0.9600E+02
    -13.623  0.0000E+00  0.9600E+02
    -13.530  0.0000E+00  0.9600E+02
    -13.438  0.0000E+00  0.9600E+02
    -13.345  0.0000E+00  0.9600E+02
    -13.252  0.0000E+00  0.9600E+02
    -13.160  0.0000E+00  0.9600E+02
    -13.067  0.0000E+00  0.9600E+02
    -12.974  0.0000E+00  0.9600E+02
    -12.882  0.0000E+00  0.9600E+02
    -12.789  0.0000E+00  0.9600E+02
    -12.696  0.0000E+00  0.9600E+02
    -12.603  0.0000E+00  0.9600E+02
    -12.511  0.0000E+00  0.9600E+02
    -12.418  0.0000E+00  0.9600E+02
    -12.325  0.0000E+00  0.9600E+02
    -12.233  0.0000E+00  0.9600E+02
    -12.140  0.0000E+00  0.9600E+02
    -12.047  0.0000E+00  0.9600E+02
    -11.955  0.0000E+00  0.9600E+02
    -11.862  0.0000E+00  0.9600E+02
    -11.769  0.0000E+00  0.9600E+02
    -11.677  0.0000E+00  0.9600E+02
    -11.584  0.0000E+00  0.9600E+02
    -11.491  0.0000E+00  0.9600E+02
    -11.399  0.0000E+00  0.9600E+02
    -11.306  0.0000E+00  0.9600E+02
    -11.213  0.0000E+00  0.9600E+02
    -11.121  0.1501E+02  0.9791E+02
    -11.028  0.0000E+00  0.1040E+03
    -10.935  0.0000E+00  0.1040E+03
    -10.843  0.0000E+00  0.1120E+03
    -10.750  0.3483E+00  0.1121E+03
    -10.657  0.6336E+01  0.1144E+03
    -10.565  0.3179E+01  0.1199E+03
    -10.472  0.1568E+02  0.1276E+03
    -10.379  0.0000E+00  0.1287E+03
    -10.287  0.1019E+02  0.1352E+03
    -10.194  0.4795E+01  0.1400E+03
    -10.101  0.2203E+02  0.1511E+03
    -10.009  0.3996E+01  0.1600E+03
     -9.916  0.0000E+00  0.1600E+03
     -9.823  0.0000E+00  0.1600E+03
     -9.731  0.0000E+00  0.1600E+03
     -9.638  0.0000E+00  0.1600E+03
     -9.545  0.0000E+00  0.1600E+03
     -9.452  0.0000E+00  0.1600E+03
     -9.360  0.0000E+00  0.1600E+03
     -9.267  0.0000E+00  0.1600E+03
     -9.174  0.0000E+00  0.1600E+03
     -9.082  0.0000E+00  0.1600E+03
     -8.989  0.0000E+00  0.1600E+03
     -8.896  0.0000E+00  0.1600E+03
     -8.804  0.0000E+00  0.1600E+03
     -8.711  0.0000E+00  0.1600E+03
     -8.618  0.0000E+00  0.1600E+03
     -8.526  0.0000E+00  0.1600E+03
     -8.433  0.0000E+00  0.1600E+03
     -8.340  0.0000E+00  0.1600E+03
     -8.248  0.0000E+00  0.1600E+03
     -8.155  0.0000E+00  0.1600E+03
     -8.062  0.0000E+00  0.1600E+03
     -7.970  0.0000E+00  0.1600E+03
     -7.877  0.0000E+00  0.1600E+03
     -7.784  0.0000E+00  0.1600E+03
     -7.692  0.0000E+00  0.1600E+03
     -7.599  0.0000E+00  0.1600E+03
     -7.506  0.0000E+00  0.1600E+03
     -7.414  0.0000E+00  0.1600E+03
     -7.321  0.0000E+00  0.1680E+03
     -7.228  0.2980E+01  0.1683E+03
     -7.136  0.1845E+00  0.1840E+03
     -7.043  0.0000E+00  0.1920E+03
     -6.950  0.0000E+00  0.1920E+03
     -6.858  0.1599E+01  0.1922E+03
     -6.765  0.3925E+00  0.1926E+03
     -6.672  0.0000E+00  0.1936E+03
     -6.579  0.7993E+00  0.1945E+03
     -6.487  0.3197E+01  0.1964E+03
     -6.394  0.0000E+00  0.1988E+03
     -6.301  0.1599E+01  0.2003E+03
     -6.209  0.1598E+01  0.2025E+03
     -6.116  0.3139E+01  0.2044E+03
     -6.023  0.1599E+01  0.2059E+03
     -5.931  0.4907E+01  0.2069E+03
     -5.838  0.0000E+00  0.2075E+03
     -5.745  0.0000E+00  0.2079E+03
     -5.653  0.0000E+00  0.2080E+03
     -5.560  0.7340E+00  0.2160E+03
     -5.467  0.0000E+00  0.2160E+03
     -5.375  0.0000E+00  0.2160E+03
     -5.282  0.1966E+02  0.2212E+03
     -5.189  0.0000E+00  0.2240E+03
     -5.097  0.0000E+00  0.2240E+03
     -5.004  0.0000E+00  0.2240E+03
     -4.911  0.0000E+00  0.2240E+03
     -4.819  0.0000E+00  0.2240E+03
     -4.726  0.0000E+00  0.2240E+03
     -4.633  0.0000E+00  0.2240E+03
     -4.541  0.0000E+00  0.2240E+03
     -4.448  0.0000E+00  0.2240E+03
     -4.355  0.0000E+00  0.2240E+03
     -4.263  0.0000E+00  0.2240E+03
     -4.170  0.0000E+00  0.2240E+03
     -4.077  0.0000E+00  0.2240E+03
     -3.985  0.0000E+00  0.2240E+03
     -3.892  0.0000E+00  0.2240E+03
     -3.799  0.0000E+00  0.2240E+03
     -3.706  0.0000E+00  0.2240E+03
     -3.614  0.0000E+00  0.2240E+03
     -3.521  0.0000E+00  0.2240E+03
     -3.428  0.1599E+02  0.2396E+03
     -3.336  0.1358E+01  0.2486E+03
     -3.243  0.0000E+00  0.2560E+03
     -3.150  0.0000E+00  0.2560E+03
     -3.058  0.0000E+00  0.2560E+03
     -2.965  0.0000E+00  0.2560E+03
     -2.872  0.0000E+00  0.2560E+03
     -2.780  0.0000E+00  0.2560E+03
     -2.687  0.0000E+00  0.2560E+03
     -2.594  0.0000E+00  0.2560E+03
     -2.502  0.0000E+00  0.2560E+03
     -2.409  0.0000E+00  0.2560E+03
     -2.316  0.0000E+00  0.2560E+03
     -2.224  0.0000E+00  0.2560E+03
     -2.131  0.0000E+00  0.2560E+03
     -2.038  0.0000E+00  0.2567E+03
     -1.946  0.9893E-07  0.2586E+03
     -1.853  0.5590E-09  0.2587E+03
     -1.760  0.7993E+00  0.2609E+03
     -1.668  0.4766E+01  0.2645E+03
     -1.575  0.2505E+01  0.2679E+03
     -1.482  0.6109E+01  0.2713E+03
     -1.390  0.6092E-07  0.2742E+03
     -1.297  0.0000E+00  0.2779E+03
     -1.204  0.0000E+00  0.2797E+03
     -1.112  0.0000E+00  0.2800E+03
     -1.019  0.0000E+00  0.2801E+03
     -0.926  0.2398E+01  0.2815E+03
     -0.833  0.2064E+01  0.2875E+03
     -0.741  0.6378E+01  0.2933E+03
     -0.648  0.4129E+01  0.2985E+03
     -0.555  0.4700E+01  0.3024E+03
     -0.463  0.4815E+01  0.3053E+03
     -0.370  0.3995E+01  0.3103E+03
     -0.277  0.3674E+01  0.3152E+03
     -0.185  0.4793E+01  0.3227E+03
     -0.092  0.3946E+01  0.3286E+03
      0.001  0.1979E+01  0.3340E+03
      0.093  0.7895E+01  0.3417E+03
      0.186  0.5402E+01  0.3518E+03
      0.279  0.4068E+01  0.3607E+03
      0.371  0.9251E-01  0.3688E+03
      0.464  0.1434E+02  0.3777E+03
      0.557  0.5593E+01  0.3866E+03
      0.649  0.6392E+01  0.3939E+03
      0.742  0.1050E+01  0.3974E+03
      0.835  0.2288E-01  0.3990E+03
      0.927  0.0000E+00  0.3996E+03
      1.020  0.0000E+00  0.3999E+03
      1.113  0.0000E+00  0.4000E+03
      1.205  0.0000E+00  0.4000E+03
      1.298  0.0000E+00  0.4000E+03
      1.391  0.0000E+00  0.4000E+03
      1.483  0.0000E+00  0.4000E+03
      1.576  0.0000E+00  0.4000E+03
      1.669  0.0000E+00  0.4000E+03
      1.761  0.0000E+00  0.4000E+03
      1.854  0.0000E+00  0.4000E+03
      1.947  0.0000E+00  0.4000E+03
      2.039  0.0000E+00  0.4000E+03
      2.132  0.0000E+00  0.4000E+03
      2.225  0.0000E+00  0.4000E+03
      2.318  0.0000E+00  0.4000E+03
      2.410  0.0000E+00  0.4000E+03
      2.503  0.0000E+00  0.4000E+03
      2.596  0.0000E+00  0.4000E+03
      2.688  0.0000E+00  0.4000E+03
      2.781  0.0000E+00  0.4000E+03
      2.874  0.0000E+00  0.4000E+03
      2.966  0.1322E+01  0.4003E+03
      3.059  0.0000E+00  0.4007E+03
      3.152  0.3197E+01  0.4019E+03
      3.244  0.1785E+00  0.4033E+03
      3.337  0.2074E+01  0.4046E+03
      3.430  0.2398E+01  0.4064E+03
      3.522  0.2971E+01  0.4077E+03
      3.615  0.1241E-10  0.4081E+03
      3.708  0.0000E+00  0.4090E+03
      3.800  0.5294E-01  0.4102E+03
      3.893  0.0000E+00  0.4117E+03
      3.986  0.0000E+00  0.4147E+03
      4.078  0.5079E+01  0.4175E+03
      4.171  0.1249E+02  0.4213E+03
      4.264  0.0000E+00  0.4233E+03
      4.356  0.0000E+00  0.4239E+03
      4.449  0.0000E+00  0.4240E+03
      4.542  0.0000E+00  0.4240E+03
      4.634  0.0000E+00  0.4240E+03
      4.727  0.0000E+00  0.4240E+03
      4.820  0.0000E+00  0.4240E+03
      4.912  0.3884E+01  0.4255E+03
      5.005  0.7993E+01  0.4283E+03
      5.098  0.1599E+01  0.4301E+03
      5.191  0.1564E+00  0.4318E+03
      5.283  0.4067E+01  0.4333E+03
      5.376  0.3197E+01  0.4367E+03
      5.469  0.0000E+00  0.4392E+03
      5.561  0.4788E+01  0.4419E+03
      5.654  0.4770E+01  0.4444E+03
      5.747  0.3197E+01  0.4472E+03
      5.839  0.1599E+01  0.4489E+03
      5.932  0.0000E+00  0.4511E+03
      6.025  0.0000E+00  0.4522E+03
      6.117  0.2322E+01  0.4544E+03
      6.210  0.1592E+01  0.4581E+03
      6.303  0.3194E+01  0.4605E+03
      6.395  0.2409E+01  0.4628E+03
      6.488  0.3996E+01  0.4654E+03
      6.581  0.8709E+01  0.4710E+03
      6.673  0.1599E+01  0.4739E+03
      6.766  0.6071E+01  0.4792E+03
      6.859  0.7872E+00  0.4833E+03
      6.951  0.9975E+00  0.4874E+03
      7.044  0.5005E+01  0.4910E+03
      7.137  0.6637E+01  0.4965E+03
      7.229  0.8212E+01  0.5009E+03
      7.322  0.2869E-06  0.5047E+03
      7.415  0.3280E+01  0.5096E+03
      7.507  0.0000E+00  0.5117E+03
      7.600  0.0000E+00  0.5120E+03
      7.693  0.0000E+00  0.5120E+03
      7.785  0.0000E+00  0.5120E+03
      7.878  0.0000E+00  0.5120E+03
      7.971  0.0000E+00  0.5120E+03
      8.064  0.0000E+00  0.5120E+03
      8.156  0.0000E+00  0.5120E+03
      8.249  0.0000E+00  0.5120E+03
      8.342  0.0000E+00  0.5120E+03
      8.434  0.0000E+00  0.5120E+03
      8.527  0.0000E+00  0.5120E+03
      8.620  0.0000E+00  0.5120E+03
      8.712  0.0000E+00  0.5120E+03
      8.805  0.0000E+00  0.5120E+03
