 vasp.5.4.1 24Jun15 (build Nov 25 2015 16:01:35) complex                        
  
 executed on         CrayXC-Intel date 2016.07.10  07:57:18
 running on   24 total cores
 distrk:  each k-point on   24 cores,    1 groups
 distr:  one band on NCORES_PER_BAND=   3 cores,    8 groups


--------------------------------------------------------------------------------------------------------


 INCAR:
 POTCAR:    PAW_PBE C 08Apr2002                   
 POTCAR:    PAW_PBE N 08Apr2002                   
 POTCAR:    PAW_PBE H 15Jun2001                   
 POTCAR:    PAW_PBE Pb_d 06Sep2000                
 POTCAR:    PAW_PBE I 08Apr2002                   
 POTCAR:    PAW_PBE C 08Apr2002                   
   VRHFIN =C: s2p2                                                              
   LEXCH  = PE                                                                  
   EATOM  =   147.1560 eV,   10.8157 Ry                                         
                                                                                
   TITEL  = PAW_PBE C 08Apr2002                                                 
   LULTRA =        F    use ultrasoft PP ?                                      
   IUNSCR =        1    unscreen: 0-lin 1-nonlin 2-no                           
   RPACOR =    1.200    partial core radius                                     
   POMASS =   12.011; ZVAL   =    4.000    mass and valenz                      
   RCORE  =    1.500    outmost cutoff radius                                   
   RWIGS  =    1.630; RWIGS  =    0.863    wigner-seitz radius (au A)           
   ENMAX  =  400.000; ENMIN  =  300.000 eV                                      
   ICORE  =        2    local potential                                         
   LCOR   =        T    correct aug charges                                     
   LPAW   =        T    paw PP                                                  
   EAUG   =  644.873                                                            
   DEXC   =    0.000                                                            
   RMAX   =    1.529    core radius for proj-oper                               
   RAUG   =    1.300    factor for augmentation sphere                          
   RDEP   =    1.501    radius for radial grids                                 
   RDEPT  =    1.300    core radius for aug-charge                              
                                                                                
   Atomic configuration                                                         
    4 entries                                                                   
     n  l   j            E        occ.                                          
     1  0  0.50      -273.3789   2.0000                                         
     2  0  0.50       -13.7508   2.0000                                         
     2  1  0.50        -5.2854   2.0000                                         
     3  2  1.50        -5.4423   0.0000                                         
   Description                                                                  
     l       E           TYP  RCUT    TYP  RCUT                                 
     0    -13.7508458     23  1.200                                             
     0     -8.2022199     23  1.200                                             
     1     -5.2854383     23  1.500                                             
     1     34.0145650     23  1.500                                             
     2     -5.4423304      7  1.500                                             
  local pseudopotential read in
  partial core-charges read in
  partial kinetic energy density read in
  atomic valenz-charges read in
  non local Contribution for L=           0  read in
    real space projection operators read in
  non local Contribution for L=           0  read in
    real space projection operators read in
  non local Contribution for L=           1  read in
    real space projection operators read in
  non local Contribution for L=           1  read in
    real space projection operators read in
    PAW grid and wavefunctions read in
 
   number of l-projection  operators is LMAX  =           4
   number of lm-projection operators is LMMAX =           8
 
 POTCAR:    PAW_PBE N 08Apr2002                   
   VRHFIN =N: s2p3                                                              
   LEXCH  = PE                                                                  
   EATOM  =   264.5486 eV,   19.4438 Ry                                         
                                                                                
   TITEL  = PAW_PBE N 08Apr2002                                                 
   LULTRA =        F    use ultrasoft PP ?                                      
   IUNSCR =        1    unscreen: 0-lin 1-nonlin 2-no                           
   RPACOR =    1.200    partial core radius                                     
   POMASS =   14.001; ZVAL   =    5.000    mass and valenz                      
   RCORE  =    1.500    outmost cutoff radius                                   
   RWIGS  =    1.400; RWIGS  =    0.741    wigner-seitz radius (au A)           
   ENMAX  =  400.000; ENMIN  =  300.000 eV                                      
   ICORE  =        2    local potential                                         
   LCOR   =        T    correct aug charges                                     
   LPAW   =        T    paw PP                                                  
   EAUG   =  627.112                                                            
   DEXC   =    0.000                                                            
   RMAX   =    1.529    core radius for proj-oper                               
   RAUG   =    1.300    factor for augmentation sphere                          
   RDEP   =    1.514    radius for radial grids                                 
   RDEPT  =    1.338    core radius for aug-charge                              
                                                                                
   Atomic configuration                                                         
    4 entries                                                                   
     n  l   j            E        occ.                                          
     1  0  0.50      -384.7179   2.0000                                         
     2  0  0.50       -18.5828   2.0000                                         
     2  1  0.50        -7.0898   3.0000                                         
     3  2  1.50        -6.8029   0.0000                                         
   Description                                                                  
     l       E           TYP  RCUT    TYP  RCUT                                 
     0    -18.5828119     23  1.200                                             
     0    -13.5018863     23  1.200                                             
     1     -7.0897853     23  1.500                                             
     1      9.5240782     23  1.500                                             
     2     -6.8029130      7  1.500                                             
  local pseudopotential read in
  partial core-charges read in
  partial kinetic energy density read in
  atomic valenz-charges read in
  non local Contribution for L=           0  read in
    real space projection operators read in
  non local Contribution for L=           0  read in
    real space projection operators read in
  non local Contribution for L=           1  read in
    real space projection operators read in
  non local Contribution for L=           1  read in
    real space projection operators read in
    PAW grid and wavefunctions read in
 
   number of l-projection  operators is LMAX  =           4
   number of lm-projection operators is LMMAX =           8
 
 POTCAR:    PAW_PBE H 15Jun2001                   
   VRHFIN =H: ultrasoft test                                                    
   LEXCH  = PE                                                                  
   EATOM  =    12.4884 eV,    0.9179 Ry                                         
                                                                                
   TITEL  = PAW_PBE H 15Jun2001                                                 
   LULTRA =        F    use ultrasoft PP ?                                      
   IUNSCR =        0    unscreen: 0-lin 1-nonlin 2-no                           
   RPACOR =    0.000    partial core radius                                     
   POMASS =    1.000; ZVAL   =    1.000    mass and valenz                      
   RCORE  =    1.100    outmost cutoff radius                                   
   RWIGS  =    0.700; RWIGS  =    0.370    wigner-seitz radius (au A)           
   ENMAX  =  250.000; ENMIN  =  200.000 eV                                      
   RCLOC  =    0.701    cutoff for local pot                                    
   LCOR   =        T    correct aug charges                                     
   LPAW   =        T    paw PP                                                  
   EAUG   =  400.000                                                            
   RMAX   =    1.123    core radius for proj-oper                               
   RAUG   =    1.200    factor for augmentation sphere                          
   RDEP   =    1.112    radius for radial grids                                 
   RDEPT  =    0.926    core radius for aug-charge                              
                                                                                
   Atomic configuration                                                         
    2 entries                                                                   
     n  l   j            E        occ.                                          
     1  0  0.50        -6.4927   1.0000                                         
     2  1  0.50        -3.4015   0.0000                                         
   Description                                                                  
     l       E           TYP  RCUT    TYP  RCUT                                 
     0     -6.4927494     23  1.100                                             
     0      6.8029130     23  1.100                                             
     1     -4.0817478     23  1.100                                             
  local pseudopotential read in
  atomic valenz-charges read in
  non local Contribution for L=           0  read in
    real space projection operators read in
  non local Contribution for L=           0  read in
    real space projection operators read in
  non local Contribution for L=           1  read in
    real space projection operators read in
    PAW grid and wavefunctions read in
 
   number of l-projection  operators is LMAX  =           3
   number of lm-projection operators is LMMAX =           5
 
 POTCAR:    PAW_PBE Pb_d 06Sep2000                
   VRHFIN =Pb:                                                                  
   LEXCH  = PE                                                                  
   EATOM  =  1661.6185 eV,  122.1255 Ry                                         
                                                                                
   TITEL  = PAW_PBE Pb_d 06Sep2000                                              
   LULTRA =        F    use ultrasoft PP ?                                      
   IUNSCR =        1    unscreen: 0-lin 1-nonlin 2-no                           
   RPACOR =    2.200    partial core radius                                     
   POMASS =  207.200; ZVAL   =   14.000    mass and valenz                      
   RCORE  =    2.500    outmost cutoff radius                                   
   RWIGS  =    3.260; RWIGS  =    1.725    wigner-seitz radius (au A)           
   ENMAX  =  237.835; ENMIN  =  178.376 eV                                      
   ICORE  =        3    local potential                                         
   LCOR   =        T    correct aug charges                                     
   LPAW   =        T    paw PP                                                  
   EAUG   =  391.914                                                            
   DEXC   =    0.000                                                            
   RMAX   =    2.565    core radius for proj-oper                               
   RAUG   =    1.300    factor for augmentation sphere                          
   RDEP   =    2.643    radius for radial grids                                 
   RDEPT  =    2.092    core radius for aug-charge                              
                                                                                
   Atomic configuration                                                         
   16 entries                                                                   
     n  l   j            E        occ.                                          
     1  0  0.50    -88091.8466   2.0000                                         
     2  0  0.50    -15753.4197   2.0000                                         
     2  1  1.50    -13508.1797   6.0000                                         
     3  0  0.50     -3781.7194   2.0000                                         
     3  1  1.50     -3138.2529   6.0000                                         
     3  2  2.50     -2483.2977  10.0000                                         
     4  0  0.50      -856.2895   2.0000                                         
     4  1  1.50      -645.4942   6.0000                                         
     4  2  2.50      -401.8768  10.0000                                         
     4  3  3.50      -132.9059  14.0000                                         
     5  0  0.50      -144.0950   2.0000                                         
     5  1  1.50       -85.7879   6.0000                                         
     5  2  2.50       -21.1769  10.0000                                         
     6  0  0.50       -12.0372   2.0000                                         
     6  1  1.50        -3.4971   2.0000                                         
     5  3  2.50        -2.7212   0.0000                                         
   Description                                                                  
     l       E           TYP  RCUT    TYP  RCUT                                 
     2    -21.1768523     23  2.500                                             
     2      1.3605826     23  2.500                                             
     0    -12.0371562     23  2.500                                             
     0     13.6058260     23  2.500                                             
     1     -3.4971339     23  2.500                                             
     1     13.6058260     23  2.500                                             
     3     -1.3605826      7  2.500                                             
  local pseudopotential read in
  partial core-charges read in
  partial kinetic energy density read in
  atomic valenz-charges read in
  non local Contribution for L=           2  read in
    real space projection operators read in
  non local Contribution for L=           2  read in
    real space projection operators read in
  non local Contribution for L=           0  read in
    real space projection operators read in
  non local Contribution for L=           0  read in
    real space projection operators read in
  non local Contribution for L=           1  read in
    real space projection operators read in
  non local Contribution for L=           1  read in
    real space projection operators read in
    PAW grid and wavefunctions read in
 
   number of l-projection  operators is LMAX  =           6
   number of lm-projection operators is LMMAX =          18
 
 POTCAR:    PAW_PBE I 08Apr2002                   
   VRHFIN =I : s2p5                                                             
   LEXCH  = PE                                                                  
   EATOM  =   315.8678 eV,   23.2156 Ry                                         
                                                                                
   TITEL  = PAW_PBE I 08Apr2002                                                 
   LULTRA =        F    use ultrasoft PP ?                                      
   IUNSCR =        1    unscreen: 0-lin 1-nonlin 2-no                           
   RPACOR =    2.200    partial core radius                                     
   POMASS =  126.904; ZVAL   =    7.000    mass and valenz                      
   RCORE  =    2.300    outmost cutoff radius                                   
   RWIGS  =    2.810; RWIGS  =    1.487    wigner-seitz radius (au A)           
   ENMAX  =  175.647; ENMIN  =  131.735 eV                                      
   ICORE  =        3    local potential                                         
   LCOR   =        T    correct aug charges                                     
   LPAW   =        T    paw PP                                                  
   EAUG   =  370.139                                                            
   DEXC   =    0.000                                                            
   RMAX   =    2.359    core radius for proj-oper                               
   RAUG   =    1.300    factor for augmentation sphere                          
   RDEP   =    2.392    radius for radial grids                                 
   RDEPT  =    2.170    core radius for aug-charge                              
                                                                                
   Atomic configuration                                                         
   13 entries                                                                   
     n  l   j            E        occ.                                          
     1  0  0.50    -32976.3739   2.0000                                         
     2  0  0.50     -5094.5933   2.0000                                         
     2  1  1.50     -4572.0131   6.0000                                         
     3  0  0.50     -1028.2813   2.0000                                         
     3  1  1.50      -859.0250   6.0000                                         
     3  2  2.50      -605.7620  10.0000                                         
     4  0  0.50      -180.5540   2.0000                                         
     4  1  1.50      -127.5306   6.0000                                         
     4  2  2.50       -50.2720  10.0000                                         
     5  0  0.50       -17.4058   2.0000                                         
     5  1  0.50        -7.0851   5.0000                                         
     5  2  1.50        -7.0750   0.0000                                         
     4  3  2.50        -7.0750   0.0000                                         
   Description                                                                  
     l       E           TYP  RCUT    TYP  RCUT                                 
     0    -17.4058016     23  2.300                                             
     0    -18.7663842     23  2.300                                             
     1     -7.0850686     23  2.300                                             
     1     -4.2150896     23  2.300                                             
     2     -7.0750295     23  2.300                                             
     3     -1.3605826     23  2.300                                             
  local pseudopotential read in
  partial core-charges read in
  partial kinetic energy density read in
  atomic valenz-charges read in
  non local Contribution for L=           0  read in
    real space projection operators read in
  non local Contribution for L=           0  read in
    real space projection operators read in
  non local Contribution for L=           1  read in
    real space projection operators read in
  non local Contribution for L=           1  read in
    real space projection operators read in
  non local Contribution for L=           2  read in
    real space projection operators read in
    PAW grid and wavefunctions read in
 
   number of l-projection  operators is LMAX  =           5
   number of lm-projection operators is LMMAX =          13
 

 ----------------------------------------------------------------------------- 
|                                                                             |
|  ADVICE TO THIS USER RUNNING 'VASP/VAMP'   (HEAR YOUR MASTER'S VOICE ...):  |
|                                                                             |
|      You have a (more or less) 'large supercell' and for larger cells       |
|      it might be more efficient to use real space projection opertators     |
|      So try LREAL= Auto  in the INCAR   file.                               |
|      Mind: At the moment your POTCAR file does not contain real space       |
|       projectors, and has to be modified,  BUT if you                       |
|      want to do an extremely  accurate calculation you might also keep the  |
|      reciprocal projection scheme          (i.e. LREAL=.FALSE.)             |
|                                                                             |
 ----------------------------------------------------------------------------- 


 ----------------------------------------------------------------------------- 
|                                                                             |
|  ADVICE TO THIS USER RUNNING 'VASP/VAMP'   (HEAR YOUR MASTER'S VOICE ...):  |
|                                                                             |
|      You enforced a specific xc-type in the INCAR file,                     |
|      a different type was found on the POTCAR file                          |
|          I HOPE YOU KNOW, WHAT YOU ARE  DOING                               |
|                                                                             |
 ----------------------------------------------------------------------------- 

  PAW_PBE C 08Apr2002                   :
 energy of atom  1       EATOM= -147.1560
 kinetic energy error for atom=    0.0032 (will be added to EATOM!!)
  PAW_PBE N 08Apr2002                   :
 energy of atom  2       EATOM= -264.5486
 kinetic energy error for atom=    0.0061 (will be added to EATOM!!)
  PAW_PBE H 15Jun2001                   :
 energy of atom  3       EATOM=  -12.4884
 kinetic energy error for atom=    0.0002 (will be added to EATOM!!)
  PAW_PBE Pb_d 06Sep2000                :
 energy of atom  4       EATOM=-1661.6185
 kinetic energy error for atom=    0.0012 (will be added to EATOM!!)
  PAW_PBE I 08Apr2002                   :
 energy of atom  5       EATOM= -315.8678
 kinetic energy error for atom=    0.0003 (will be added to EATOM!!)
 
 
 POSCAR: C N H Pb I                              
  positions in direct lattice
  No initial velocities read in
 exchange correlation table for  LEXCH =       14
   RHO(1)=    0.500       N(1)  =     2000
   RHO(2)=  100.500       N(2)  =     4000
 


--------------------------------------------------------------------------------------------------------


 ion  position               nearest neighbor table
   1  0.199  0.250  0.228-  25 1.11  33 1.11  17 1.14   9 1.53
   2  0.695  0.250  0.230-  26 1.11  34 1.11  18 1.14  10 1.53
   3  0.195  0.750  0.230-  27 1.11  35 1.11  19 1.14  11 1.53
   4  0.699  0.750  0.228-  28 1.11  36 1.11  20 1.14  12 1.53
   5  0.195  0.250  0.730-  29 1.11  37 1.11  21 1.14  13 1.53
   6  0.699  0.250  0.728-  30 1.11  38 1.11  22 1.14  14 1.53
   7  0.199  0.750  0.728-  31 1.11  39 1.11  23 1.14  15 1.53
   8  0.695  0.750  0.730-  32 1.11  40 1.11  24 1.14  16 1.53
   9  0.319  0.250  0.245-  41 1.06  49 1.06  57 1.10   1 1.53
  10  0.790  0.250  0.303-  42 1.06  50 1.06  58 1.07   2 1.53
  11  0.290  0.750  0.303-  43 1.06  51 1.06  59 1.07   3 1.53
  12  0.819  0.750  0.245-  44 1.06  52 1.06  60 1.10   4 1.53
  13  0.290  0.250  0.803-  45 1.06  53 1.06  61 1.07   5 1.53
  14  0.819  0.250  0.745-  46 1.06  54 1.06  62 1.10   6 1.53
  15  0.319  0.750  0.745-  47 1.06  55 1.06  63 1.10   7 1.53
  16  0.790  0.750  0.803-  48 1.06  56 1.06  64 1.07   8 1.53
  17  0.183  0.250  0.141-   1 1.14
  18  0.727  0.250  0.145-   2 1.14
  19  0.227  0.750  0.145-   3 1.14
  20  0.683  0.750  0.141-   4 1.14
  21  0.227  0.250  0.645-   5 1.14
  22  0.683  0.250  0.641-   6 1.14
  23  0.183  0.750  0.641-   7 1.14
  24  0.727  0.750  0.645-   8 1.14
  25  0.162  0.322  0.266-   1 1.11
  26  0.646  0.323  0.245-   2 1.11
  27  0.146  0.823  0.245-   3 1.11
  28  0.662  0.822  0.266-   4 1.11
  29  0.146  0.323  0.745-   5 1.11
  30  0.662  0.322  0.766-   6 1.11
  31  0.162  0.822  0.766-   7 1.11
  32  0.646  0.823  0.745-   8 1.11
  33  0.163  0.177  0.266-   1 1.11
  34  0.646  0.177  0.246-   2 1.11
  35  0.146  0.677  0.246-   3 1.11
  36  0.663  0.677  0.266-   4 1.11
  37  0.146  0.177  0.746-   5 1.11
  38  0.663  0.177  0.766-   6 1.11
  39  0.163  0.677  0.766-   7 1.11
  40  0.646  0.677  0.746-   8 1.11
  41  0.357  0.318  0.211-   9 1.06
  42  0.840  0.318  0.291-  10 1.06
  43  0.340  0.818  0.291-  11 1.06
  44  0.857  0.818  0.211-  12 1.06
  45  0.340  0.318  0.791-  13 1.06
  46  0.857  0.318  0.711-  14 1.06
  47  0.357  0.818  0.711-  15 1.06
  48  0.840  0.818  0.791-  16 1.06
  49  0.357  0.182  0.211-   9 1.06
  50  0.839  0.182  0.291-  10 1.06
  51  0.339  0.682  0.291-  11 1.06
  52  0.857  0.682  0.211-  12 1.06
  53  0.339  0.182  0.791-  13 1.06
  54  0.857  0.182  0.711-  14 1.06
  55  0.357  0.682  0.711-  15 1.06
  56  0.839  0.682  0.791-  16 1.06
  57  0.342  0.250  0.327-   9 1.10
  58  0.765  0.250  0.384-  10 1.07
  59  0.265  0.750  0.384-  11 1.07
  60  0.842  0.750  0.327-  12 1.10
  61  0.265  0.250  0.884-  13 1.07
  62  0.842  0.250  0.827-  14 1.10
  63  0.342  0.750  0.827-  15 1.10
  64  0.765  0.750  0.884-  16 1.07
  65  0.472  0.496  0.489-  77 3.17  90 3.18  87 3.20  73 3.22  85 3.25  89 3.37
  66  0.972  0.504  0.489-  78 3.17  89 3.18  86 3.21  74 3.22  88 3.25  90 3.37
  67  0.472  0.004  0.489-  79 3.17  92 3.18  87 3.21  75 3.22  85 3.25  91 3.37
  68  0.972  0.996  0.489-  80 3.17  91 3.18  86 3.20  76 3.22  88 3.25  92 3.37
  69  0.472  0.504  0.989-  73 3.17  94 3.18  81 3.21  77 3.22  83 3.25  93 3.37
  70  0.972  0.496  0.989-  74 3.17  93 3.18  84 3.20  78 3.22  82 3.25  94 3.37
  71  0.472  0.996  0.989-  75 3.17  96 3.18  81 3.20  79 3.22  83 3.25  95 3.37
  72  0.972  0.004  0.989-  76 3.17  95 3.18  84 3.21  80 3.22  82 3.25  96 3.37
  73  0.455  0.508  0.238-  69 3.17  65 3.22
  74  0.955  0.492  0.238-  70 3.17  66 3.22
  75  0.455  0.992  0.238-  71 3.17  67 3.22
  76  0.955  0.008  0.238-  72 3.17  68 3.22
  77  0.455  0.492  0.738-  65 3.17  69 3.22
  78  0.955  0.508  0.738-  66 3.17  70 3.22
  79  0.455  0.008  0.738-  67 3.17  71 3.22
  80  0.955  0.992  0.738-  68 3.17  72 3.22
  81  0.508  0.250  0.009-  71 3.20  69 3.21
  82  0.891  0.250  0.014-  72 3.25  70 3.25
  83  0.391  0.750  0.014-  69 3.25  71 3.25
  84  0.008  0.750  0.009-  70 3.20  72 3.21
  85  0.391  0.250  0.514-  67 3.25  65 3.25
  86  0.008  0.250  0.509-  68 3.20  66 3.21
  87  0.508  0.750  0.509-  65 3.20  67 3.21
  88  0.891  0.750  0.514-  66 3.25  68 3.25
  89  0.216  0.567  0.461-  66 3.18  65 3.37
  90  0.716  0.433  0.461-  65 3.18  66 3.37
  91  0.216  0.933  0.461-  68 3.18  67 3.37
  92  0.716  0.067  0.461-  67 3.18  68 3.37
  93  0.216  0.433  0.961-  70 3.18  69 3.37
  94  0.716  0.567  0.961-  69 3.18  70 3.37
  95  0.216  0.067  0.961-  72 3.18  71 3.37
  96  0.716  0.933  0.961-  71 3.18  72 3.37
 
  LATTYP: Found a triclinic cell.
 ALAT       =    17.8238589327
 B/A-ratio  =     0.6989248630
 C/A-ratio  =     1.0156975818
 COS(alpha) =     0.0001355172
 COS(beta)  =     0.5146378593
 COS(gamma) =     0.6988877578
  
  Lattice vectors:
  
 A1 = (  -0.1406063366, -12.4576271275, -12.7466742118)
 A2 = (  -0.0011956322, -12.4575380825,   0.0007464135)
 A3 = ( -12.7162481321,  -0.0020049566, -12.8856194186)


Analysis of symmetry for initial positions (statically):
=====================================================================
 Subroutine PRICEL returns following result:
 
  LATTYP: Found a triclinic cell.
 ALAT       =     8.8524544993
 B/A-ratio  =     1.4072411401
 C/A-ratio  =     1.0225215175
 COS(alpha) =     0.0001355172
 COS(beta)  =     0.5046167836
 COS(gamma) =     0.7037964938
  
  Lattice vectors:
  
 A1 = (   6.2890165300,   6.2297269971,   0.0687261899)
 A2 = (   0.0011956322,  12.4575380825,  -0.0007464135)
 A3 = (   6.3581240661,   0.0010024783,   6.4428097093)
 
   4 primitive cells build up your supercell.
 

 Routine SETGRP: Setting up the symmetry group for a 
 triclinic supercell.


 Subroutine GETGRP returns: Found  1 space group operations
 (whereof  1 operations were pure point group operations)
 out of a pool of  2 trial point group operations.


The static configuration has the point symmetry C_1 .


Analysis of symmetry for dynamics (positions and initial velocities):
=====================================================================
 Subroutine PRICEL returns following result:
 
  LATTYP: Found a triclinic cell.
 ALAT       =     8.8524544993
 B/A-ratio  =     1.4072411401
 C/A-ratio  =     1.0225215175
 COS(alpha) =     0.0001355172
 COS(beta)  =     0.5046167836
 COS(gamma) =     0.7037964938
  
  Lattice vectors:
  
 A1 = (   6.2890165300,   6.2297269971,   0.0687261899)
 A2 = (   0.0011956322,  12.4575380825,  -0.0007464135)
 A3 = (   6.3581240661,   0.0010024783,   6.4428097093)
 
   4 primitive cells build up your supercell.
 

 Routine SETGRP: Setting up the symmetry group for a 
 triclinic supercell.


 Subroutine GETGRP returns: Found  1 space group operations
 (whereof  1 operations were pure point group operations)
 out of a pool of  2 trial point group operations.


The dynamic configuration has the point symmetry C_1 .


 Subroutine INISYM returns: Found  1 space group operations
 (whereof  1 operations are pure point group operations),
 and found     4 'primitive' translations

 
 
 KPOINTS: Automatic 3x3x3                         

Automatic generation of k-mesh.
Space group operators:
 irot       det(A)        alpha          n_x          n_y          n_z        tau_x        tau_y        tau_z
    1     1.000000     0.000000     1.000000     0.000000     0.000000     0.000000     0.000000     0.000000
 
 Subroutine IBZKPT returns following result:
 ===========================================
 
 Found     14 irreducible k-points:
 
 Following reciprocal coordinates:
            Coordinates               Weight
  0.000000  0.000000  0.000000      1.000000
  0.333333 -0.000000 -0.000000      2.000000
  0.000000  0.333333 -0.000000      2.000000
  0.333333  0.333333  0.000000      2.000000
 -0.333333  0.333333  0.000000      2.000000
  0.000000  0.000000  0.333333      2.000000
  0.333333  0.000000  0.333333      2.000000
 -0.333333  0.000000  0.333333      2.000000
  0.000000  0.333333  0.333333      2.000000
  0.333333  0.333333  0.333333      2.000000
 -0.333333  0.333333  0.333333      2.000000
  0.000000 -0.333333  0.333333      2.000000
  0.333333 -0.333333  0.333333      2.000000
 -0.333333 -0.333333  0.333333      2.000000
 
 Following cartesian coordinates:
            Coordinates               Weight
  0.000000  0.000000  0.000000      1.000000
  0.026507 -0.000003 -0.000290      2.000000
 -0.000004  0.026758 -0.000000      2.000000
  0.026503  0.026755 -0.000290      2.000000
 -0.026511  0.026760  0.000290      2.000000
 -0.000287  0.000002  0.026152      2.000000
  0.026220 -0.000001  0.025862      2.000000
 -0.026794  0.000004  0.026442      2.000000
 -0.000291  0.026759  0.026152      2.000000
  0.026215  0.026757  0.025862      2.000000
 -0.026798  0.026762  0.026442      2.000000
 -0.000283 -0.026756  0.026152      2.000000
  0.026224 -0.026759  0.025862      2.000000
 -0.026790 -0.026753  0.026442      2.000000
 


--------------------------------------------------------------------------------------------------------




 Dimension of arrays:
   k-points           NKPTS =     14   k-points in BZ     NKDIM =     14   number of bands    NBANDS=    256
   number of dos      NEDOS =    301   number of ions     NIONS =     96
   non local maximal  LDIM  =      6   non local SUM 2l+1 LMDIM =     18
   total plane-waves  NPLWV = ******
   max r-space proj   IRMAX =      1   max aug-charges    IRDMAX= 314103
   dimension x,y,z NGX =   112 NGY =  108 NGZ =  112
   dimension x,y,z NGXF=   224 NGYF=  216 NGZF=  224
   support grid    NGXF=   448 NGYF=  432 NGZF=  448
   ions per type =               8   8  48   8  24
 NGX,Y,Z   is equivalent  to a cutoff of  14.80, 14.41, 14.61 a.u.
 NGXF,Y,Z  is equivalent  to a cutoff of  29.61, 28.83, 29.21 a.u.


 I would recommend the setting:
   dimension x,y,z NGX =   109 NGY =  107 NGZ =  110
 SYSTEM =  MAPbI3-Cubic                            
 POSCAR =  C N H Pb I                              

 Startparameter for this run:
   NWRITE =      2    write-flag & timer
   PREC   = accura    normal or accurate (medium, high low for compatibility)
   ISTART =      0    job   : 0-new  1-cont  2-samecut
   ICHARG =      2    charge: 1-file 2-atom 10-const
   ISPIN  =      1    spin polarized calculation?
   LNONCOLLINEAR =      F non collinear calculations
   LSORBIT =      F    spin-orbit coupling
   INIWAV =      1    electr: 0-lowe 1-rand  2-diag
   LASPH  =      F    aspherical Exc in radial PAW
   METAGGA=      F    non-selfconsistent MetaGGA calc.

 Electronic Relaxation 1
   ENCUT  =  700.0 eV  51.45 Ry    7.17 a.u.  27.13 26.87 27.50*2*pi/ulx,y,z
   ENINI  =  700.0     initial cutoff
   ENAUG  =  644.9 eV  augmentation charge cutoff
   NELM   =     60;   NELMIN=  2; NELMDL= -5     # of ELM steps 
   EDIFF  = 0.1E-07   stopping-criterion for ELM
   LREAL  =      F    real-space projection
   NLSPLINE    = F    spline interpolate recip. space projectors
   LCOMPAT=      F    compatible to vasp.4.4
   GGA_COMPAT  = T    GGA compatible to vasp.4.4-vasp.4.6
   LMAXPAW     = -100 max onsite density
   LMAXMIX     =    2 max onsite mixed and CHGCAR
   VOSKOWN=      0    Vosko Wilk Nusair interpolation
   ROPT   =    0.00000   0.00000   0.00000   0.00000
   ROPT   =    0.00000
 Ionic relaxation
   EDIFFG = 0.1E-06   stopping-criterion for IOM
   NSW    =      0    number of steps for IOM
   NBLOCK =      1;   KBLOCK =      1    inner block; outer block 
   IBRION =     -1    ionic relax: 0-MD 1-quasi-New 2-CG
   NFREE  =      0    steps in history (QN), initial steepest desc. (CG)
   ISIF   =      2    stress and relaxation
   IWAVPR =     10    prediction:  0-non 1-charg 2-wave 3-comb
   ISYM   =      2    0-nonsym 1-usesym 2-fastsym
   LCORR  =      T    Harris-Foulkes like correction to forces

   POTIM  = 0.5000    time-step for ionic-motion
   TEIN   =    0.0    initial temperature
   TEBEG  =    0.0;   TEEND  =   0.0 temperature during run
   SMASS  =  -3.00    Nose mass-parameter (am)
   estimated Nose-frequenzy (Omega)   =  0.10E-29 period in steps =****** mass=  -0.362E-26a.u.
   SCALEE = 1.0000    scale energy and forces
   NPACO  =    256;   APACO  = 16.0  distance and # of slots for P.C.
   PSTRESS=    0.0 pullay stress

  Mass of Ions in am
   POMASS =  12.01 14.00  1.00207.20126.90
  Ionic Valenz
   ZVAL   =   4.00  5.00  1.00 14.00  7.00
  Atomic Wigner-Seitz radii
   RWIGS  =  -1.00 -1.00 -1.00 -1.00 -1.00
  virtual crystal weights 
   VCA    =   1.00  1.00  1.00  1.00  1.00
   NELECT =     400.0000    total number of electrons
   NUPDOWN=      -1.0000    fix difference up-down

 DOS related values:
   EMIN   =  10.00;   EMAX   =-10.00  energy-range for DOS
   EFERMI =   0.00
   ISMEAR =     0;   SIGMA  =   0.00  broadening in eV -4-tet -1-fermi 0-gaus

 Electronic relaxation 2 (details)
   IALGO  =     38    algorithm
   LDIAG  =      T    sub-space diagonalisation (order eigenvalues)
   LSUBROT=      F    optimize rotation matrix (better conditioning)
   TURBO    =      0    0=normal 1=particle mesh
   IRESTART =      0    0=no restart 2=restart with 2 vectors
   NREBOOT  =      0    no. of reboots
   NMIN     =      0    reboot dimension
   EREF     =   0.00    reference energy to select bands
   IMIX   =      4    mixing-type and parameters
     AMIX     =   0.40;   BMIX     =  1.00
     AMIX_MAG =   1.60;   BMIX_MAG =  1.00
     AMIN     =   0.10
     WC   =   100.;   INIMIX=   1;  MIXPRE=   1;  MAXMIX= -45

 Intra band minimization:
   WEIMIN = 0.0000     energy-eigenvalue tresh-hold
   EBREAK =  0.98E-11  absolut break condition
   DEPER  =   0.30     relativ break condition  

   TIME   =   0.40     timestep for ELM

  volume/ion in A,a.u.               =      20.80       140.38
  Fermi-wavevector in a.u.,A,eV,Ry     =   0.957863  1.810099 12.483376  0.917502
  Thomas-Fermi vector in A             =   2.086919
 
 Write flags
   LWAVE  =      F    write WAVECAR
   LCHARG =      F    write CHGCAR
   LVTOT  =      F    write LOCPOT, total local potential
   LVHAR  =      F    write LOCPOT, Hartree potential only
   LELF   =      F    write electronic localiz. function (ELF)
   LORBIT =      0    0 simple, 1 ext, 2 COOP (PROOUT)


 Dipole corrections
   LMONO  =      F    monopole corrections only (constant potential shift)
   LDIPOL =      F    correct potential (dipole corrections)
   IDIPOL =      0    1-x, 2-y, 3-z, 4-all directions 
   EPSILON=  1.0000000 bulk dielectric constant

 Exchange correlation treatment:
   GGA     =    PS    GGA type
   LEXCH   =    14    internal setting for exchange type
   VOSKOWN=      0    Vosko Wilk Nusair interpolation
   LHFCALC =     F    Hartree Fock is set to
   LHFONE  =     F    Hartree Fock one center treatment
   AEXX    =    0.0000 exact exchange contribution

 Linear response parameters
   LEPSILON=     F    determine dielectric tensor
   LRPA    =     F    only Hartree local field effects (RPA)
   LNABLA  =     F    use nabla operator in PAW spheres
   LVEL    =     F    velocity operator in full k-point grid
   LINTERFAST=   F  fast interpolation
   KINTER  =     0    interpolate to denser k-point grid
   CSHIFT  =0.1000    complex shift for real part using Kramers Kronig
   OMEGAMAX=  -1.0    maximum frequency
   DEG_THRESHOLD= 0.2000000E-02 threshold for treating states as degnerate
   RTIME   =    0.100 relaxation time in fs

 Orbital magnetization related:
   ORBITALMAG=     F  switch on orbital magnetization
   LCHIMAG   =     F  perturbation theory with respect to B field
   DQ        =  0.001000  dq finite difference perturbation B field



--------------------------------------------------------------------------------------------------------


 Static calculation
 charge density and potential will be updated during run
 non-spin polarized calculation
 Variant of blocked Davidson
 Davidson routine will perform the subspace rotation
 perform sub-space diagonalisation
    after iterative eigenvector-optimisation
 modified Broyden-mixing scheme, WC =      100.0
 initial mixing is a Kerker type mixing with AMIX =  0.4000 and BMIX =      1.0000
 Hartree-type preconditioning will be used
 using additional bands           56
 reciprocal scheme for non local part
 use partial core corrections
 calculate Harris-corrections to forces 
   (improved forces if not selfconsistent)
 use gradient corrections 
 use of overlap-Matrix (Vanderbilt PP)
 Gauss-broadening in eV      SIGMA  =   0.00


--------------------------------------------------------------------------------------------------------


  energy-cutoff  :      700.00
  volume of cell :     1996.98
      direct lattice vectors                 reciprocal lattice vectors
    12.576837428  0.001915912  0.138198793     0.079520802 -0.000007684 -0.000869670
     0.001195632 12.457538083 -0.000746413    -0.000012224  0.080272684 -0.000000427
     0.139410704  0.000089045 12.747420625    -0.000862111  0.000004784  0.078456671

  length of vectors
    12.577596840 12.457538162 12.748182927     0.079525558  0.080272685  0.078461408


 
 k-points in units of 2pi/SCALE and weight: Automatic 3x3x3                         
   0.00000000  0.00000000  0.00000000       0.037
   0.02650693 -0.00000256 -0.00028989       0.074
  -0.00000407  0.02675756 -0.00000014       0.074
   0.02650286  0.02675500 -0.00029003       0.074
  -0.02651101  0.02676012  0.00028975       0.074
  -0.00028737  0.00000159  0.02615222       0.074
   0.02621956 -0.00000097  0.02586233       0.074
  -0.02679430  0.00000416  0.02644211       0.074
  -0.00029144  0.02675916  0.02615208       0.074
   0.02621549  0.02675659  0.02586219       0.074
  -0.02679838  0.02676172  0.02644197       0.074
  -0.00028330 -0.02675597  0.02615237       0.074
   0.02622364 -0.02675853  0.02586248       0.074
  -0.02679023 -0.02675341  0.02644226       0.074
 
 k-points in reciprocal lattice and weights: Automatic 3x3x3                         
   0.00000000  0.00000000  0.00000000       0.037
   0.33333333 -0.00000000 -0.00000000       0.074
   0.00000000  0.33333333 -0.00000000       0.074
   0.33333333  0.33333333  0.00000000       0.074
  -0.33333333  0.33333333  0.00000000       0.074
   0.00000000  0.00000000  0.33333333       0.074
   0.33333333  0.00000000  0.33333333       0.074
  -0.33333333  0.00000000  0.33333333       0.074
   0.00000000  0.33333333  0.33333333       0.074
   0.33333333  0.33333333  0.33333333       0.074
  -0.33333333  0.33333333  0.33333333       0.074
   0.00000000 -0.33333333  0.33333333       0.074
   0.33333333 -0.33333333  0.33333333       0.074
  -0.33333333 -0.33333333  0.33333333       0.074
 
 position of ions in fractional coordinates (direct lattice) 
   0.19853793  0.24978668  0.22821757
   0.69545033  0.25002987  0.22961314
   0.19545033  0.75002987  0.22961314
   0.69853793  0.74978668  0.22821757
   0.19545033  0.25002987  0.72961314
   0.69853793  0.24978668  0.72821757
   0.19853793  0.74978668  0.72821757
   0.69545033  0.75002987  0.72961314
   0.31881144  0.24992553  0.24456108
   0.79026300  0.25008175  0.30320752
   0.29026300  0.75008175  0.30320752
   0.81881144  0.74992553  0.24456108
   0.29026300  0.25008175  0.80320752
   0.81881144  0.24992553  0.74456108
   0.31881144  0.74992553  0.74456108
   0.79026300  0.75008175  0.80320752
   0.18293129  0.24970011  0.14050701
   0.72721905  0.24994208  0.14527024
   0.22721905  0.74994208  0.14527024
   0.68293129  0.74970011  0.14050701
   0.22721905  0.24994208  0.64527024
   0.68293129  0.24970011  0.64050701
   0.18293129  0.74970011  0.64050701
   0.72721905  0.74994208  0.64527024
   0.16241388  0.32205563  0.26558985
   0.64626173  0.32264874  0.24544079
   0.14626173  0.82264874  0.24544079
   0.66241388  0.82205563  0.26558985
   0.14626173  0.32264874  0.74544079
   0.66241388  0.32205563  0.76558985
   0.16241388  0.82205563  0.76558985
   0.64626173  0.82264874  0.74544079
   0.16262141  0.17748842  0.26570085
   0.64626425  0.17746372  0.24560056
   0.14626425  0.67746372  0.24560056
   0.66262141  0.67748842  0.26570085
   0.14626425  0.17746372  0.74560056
   0.66262141  0.17748842  0.76570085
   0.16262141  0.67748842  0.76570085
   0.64626425  0.67746372  0.74560056
   0.35675826  0.31764391  0.21072661
   0.83951089  0.31810465  0.29078638
   0.33951089  0.81810465  0.29078638
   0.85675826  0.81764391  0.21072661
   0.33951089  0.31810465  0.79078638
   0.85675826  0.31764391  0.71072661
   0.35675826  0.81764391  0.71072661
   0.83951089  0.81810465  0.79078638
   0.35695112  0.18226467  0.21075381
   0.83945948  0.18194510  0.29102799
   0.33945948  0.68194510  0.29102799
   0.85695112  0.68226467  0.21075381
   0.33945948  0.18194510  0.79102799
   0.85695112  0.18226467  0.71075381
   0.35695112  0.68226467  0.71075381
   0.83945948  0.68194510  0.79102799
   0.34179575  0.24993271  0.32717820
   0.76454439  0.25025433  0.38404029
   0.26454439  0.75025433  0.38404029
   0.84179575  0.74993271  0.32717820
   0.26454439  0.25025433  0.88404029
   0.84179575  0.24993271  0.82717820
   0.34179575  0.74993271  0.82717820
   0.76454439  0.75025433  0.88404029
   0.47243437  0.49617531  0.48880130
   0.97244918  0.50380428  0.48882159
   0.47244918  0.00380428  0.48882159
   0.97243437  0.99617531  0.48880130
   0.47244918  0.50380428  0.98882159
   0.97243437  0.49617531  0.98880130
   0.47243437  0.99617531  0.98880130
   0.97244918  0.00380428  0.98882159
   0.45465462  0.50788725  0.23757725
   0.95483273  0.49209485  0.23756823
   0.45483273  0.99209485  0.23756823
   0.95465462  0.00788725  0.23757725
   0.45483273  0.49209485  0.73756823
   0.95465462  0.50788725  0.73757725
   0.45465462  0.00788725  0.73757725
   0.95483273  0.99209485  0.73756823
   0.50818237  0.24996495  0.00921658
   0.89108851  0.24999307  0.01444786
   0.39108851  0.74999307  0.01444786
   0.00818237  0.74996495  0.00921658
   0.39108851  0.24999307  0.51444786
   0.00818237  0.24996495  0.50921658
   0.50818237  0.74996495  0.50921658
   0.89108851  0.74999307  0.51444786
   0.21615693  0.56715697  0.46130982
   0.71618595  0.43283790  0.46116958
   0.21618595  0.93283790  0.46116958
   0.71615693  0.06715697  0.46130982
   0.21618595  0.43283790  0.96116958
   0.71615693  0.56715697  0.96130982
   0.21615693  0.06715697  0.96130982
   0.71618595  0.93283790  0.96116958
 
 position of ions in cartesian coordinates  (Angst):
   2.52909394  3.11212777  2.93643665
   8.77887523  3.11610950  3.02289900
   2.49105433  9.34392059  2.95342639
   8.81811047  9.34185477  3.00516284
   2.56016187  3.11519607  9.32750991
   8.88721801  3.11313025  9.37924636
   2.59939711  9.34094134  9.30977376
   8.84917840  9.34492307  9.39623610
   4.04403292  3.11408938  3.16139571
   9.98157861  3.11694403  3.97414049
   3.69375771  9.34475511  3.90466788
  10.33304945  9.34381638  3.23012190
   3.76286525  3.11603060 10.27875140
  10.40215699  3.11509186  9.60420542
   4.11433609  9.34290295  9.53473281
  10.05188178  9.34575759 10.34747759
   2.32058378  3.11101164  1.81619648
   9.16666680  3.11506921  1.95213509
   2.87884591  9.34288030  1.88266249
   8.60960031  9.34073864  1.88492267
   2.94795344  3.11415578  8.25674601
   8.67870785  3.11201412  8.25900619
   2.39088695  9.33982521  8.18953359
   9.23696997  9.34388278  8.32547220
   2.08006414  4.01235515  3.40779054
   8.16253155  4.02066899  3.21780874
   1.87471065 10.24848007  3.14833614
   8.36908067 10.24208215  3.47651673
   1.94381819  4.01975555  9.52241965
   8.43818821  4.01335763  9.85060025
   2.15036731 10.24116871  9.78112765
   8.23283472 10.24948255  9.59114584
   2.08251684  2.21140401  3.40934210
   8.16241198  2.21202116  3.21995417
   1.87459108  8.43983224  3.15048157
   8.37153337  8.44113101  3.47806829
   1.94369861  2.21110772  9.52456509
   8.44064091  2.21240649  9.85215181
   2.15282001  8.44021758  9.78267920
   8.23271514  8.44083472  9.59329128
   4.51664799  3.95776344  2.73528715
  10.59931109  3.96443513  3.82255820
   4.31149019 10.19224622  3.75308560
  10.80566452 10.18749044  2.80401334
   4.38059773  3.96352170 10.12716912
  10.87477206  3.95876592  9.17809686
   4.58695116 10.18657701  9.10862426
  10.66961426 10.19324869 10.19589531
   4.51891542  2.27127177  2.73576166
  10.59853541  2.26822227  3.82573266
   4.31071452  8.49603336  3.75626005
  10.80793195  8.50099877  2.80448785
   4.37982205  2.26730884 10.13034357
  10.87703949  2.27227425  9.17857137
   4.58921859  8.50008533  9.10909876
  10.66883858  8.49703583 10.19906976
   4.34462059  3.11423025  4.21772735
   9.66938907  3.11905187  5.00099542
   3.38156818  9.34686296  4.93152282
  10.63363712  9.34395725  4.28645354
   3.45067571  3.11813844 11.30560634
  10.70274466  3.11523273 10.66053706
   4.41492376  9.34304381 10.59106445
   9.73969224  9.34786544 11.37433253
   6.01046763  6.18207150  6.29587530
  12.29908461  6.27806764  6.36522971
   6.01006808  0.04834064  6.29650352
  12.29948416 12.41179850  6.36460149
   6.08037125  6.27715421 12.66984062
  12.36859169  6.18307398 12.73868501
   6.08077079 12.41088507 12.66921241
  12.36819215  0.04934312 12.73931323
   5.75184524  6.32791694  3.09095082
  12.04248398  6.13214090  3.15997157
   5.75466308 12.35995198  3.09049897
  12.03966614  0.10010586  3.16042342
   5.82377061  6.13122746  9.46458249
  12.10996931  6.32891942  9.53376053
   5.82095278  0.09919243  9.46503434
  12.11278714 12.36095446  9.53330868
   6.39291076  3.11492230  0.18753121
  11.20938845  3.11600677  0.30713367
   4.92156755  9.34381786  0.23766107
   0.10508986  9.34273339  0.11805861
   4.99067509  3.11509334  6.61174459
   0.17419740  3.11400887  6.49214213
   6.46321393  9.34373586  6.56086832
  11.27969162  9.34482034  6.68047078
   2.78356020  7.06583475  5.90995959
   9.07216372  5.39350789  5.97737564
   2.78434283 11.62131897  5.90790303
   9.07138109  0.83802367  5.97943220
   2.85345036  5.39259445 12.28198655
   9.14168426  7.06683723 12.35276930
   2.85266773  0.83711023 12.28404311
   9.14246689 11.62232145 12.35071274
 


--------------------------------------------------------------------------------------------------------


 k-point  1 :   0.0000 0.0000 0.0000  plane waves:   84007
 k-point  2 :   0.3333-0.0000-0.0000  plane waves:   84003
 k-point  3 :   0.0000 0.3333-0.0000  plane waves:   83995
 k-point  4 :   0.3333 0.3333 0.0000  plane waves:   84018
 k-point  5 :  -0.3333 0.3333 0.0000  plane waves:   84019
 k-point  6 :   0.0000 0.0000 0.3333  plane waves:   83960
 k-point  7 :   0.3333 0.0000 0.3333  plane waves:   83937
 k-point  8 :  -0.3333 0.0000 0.3333  plane waves:   83982
 k-point  9 :   0.0000 0.3333 0.3333  plane waves:   83984
 k-point 10 :   0.3333 0.3333 0.3333  plane waves:   84012
 k-point 11 :  -0.3333 0.3333 0.3333  plane waves:   83970
 k-point 12 :   0.0000-0.3333 0.3333  plane waves:   83977
 k-point 13 :   0.3333-0.3333 0.3333  plane waves:   84013
 k-point 14 :  -0.3333-0.3333 0.3333  plane waves:   83973

 maximum and minimum number of plane-waves per node :     28039    27934

 maximum number of plane-waves:     84019
 maximum index in each direction: 
   IXMAX=   27   IYMAX=   27   IZMAX=   27
   IXMIN=  -27   IYMIN=  -27   IZMIN=  -27

 NGX is ok and might be reduce to 110
 WARNING: aliasing errors must be expected set NGY to 110 to avoid them
 NGZ is ok and might be reduce to 110
 aliasing errors are usually negligible using standard VASP settings
 and one can safely disregard these warnings

 parallel 3D FFT for wavefunctions:
    minimum data exchange during FFTs selected (reduces bandwidth)
 parallel 3D FFT for charge:
    minimum data exchange during FFTs selected (reduces bandwidth)


 total amount of memory used by VASP on root node   697522. kBytes
========================================================================

   base      :      30000. kBytes
   nonl-proj :     325712. kBytes
   fftplans  :      80881. kBytes
   grid      :      57435. kBytes
   one-center:        497. kBytes
   wavefun   :     202997. kBytes
 
     INWAV:  cpu time    0.0000: real time    0.0000
 Broyden mixing: mesh for mixing (old mesh)
   NGX = 55   NGY = 53   NGZ = 55
  (NGX  =224   NGY  =216   NGZ  =224)
  gives a total of 160325 points

 initial charge density was supplied:
 charge density of overlapping atoms calculated
 number of electron     400.0000000 magnetization 
 keeping initial charge density in first step


--------------------------------------------------------------------------------------------------------


 Maximum index for augmentation-charges        13753 (set IRDMAX)


--------------------------------------------------------------------------------------------------------


 First call to EWALD:  gamma=   0.141
 Maximum number of real-space cells 3x 3x 3
 Maximum number of reciprocal cells 3x 3x 3

 FEWALD executed in parallel
    FEWALD:  cpu time    0.0040: real time    0.0045


----------------------------------------- Iteration    1(   1)  ---------------------------------------


    POTLOK:  cpu time    0.4720: real time    0.4729
    SETDIJ:  cpu time    0.7520: real time    0.7491
     EDDAV:  cpu time  248.3675: real time  248.5240
       DOS:  cpu time    0.0000: real time    0.0006
    --------------------------------------------
      LOOP:  cpu time  249.5916: real time  249.7629

 eigenvalue-minimisations  :  7176
 total energy-change (2. order) : 0.3576704E+04  (-0.1891997E+05)
 number of electron     400.0000000 magnetization 
 augmentation part      400.0000000 magnetization 

 Free energy of the ion-electron system (eV)
  ---------------------------------------------------
  alpha Z        PSCENC =       370.05370877
  Ewald energy   TEWEN  =    -15704.00914826
  -Hartree energ DENC   =     -7994.06276657
  -exchange      EXHF   =         0.00000000
  -V(xc)+E(xc)   XCENC  =       387.53209662
  PAW double counting   =     20601.23165652   -19855.90553853
  entropy T*S    EENTRO =        -0.00000000
  eigenvalues    EBANDS =      1022.85723872
  atomic energy  EATOM  =     24749.00668030
  Solvation  Ediel_sol  =         0.00000000
  ---------------------------------------------------
  free energy    TOTEN  =      3576.70392757 eV

  energy without entropy =     3576.70392757  energy(sigma->0) =     3576.70392757


--------------------------------------------------------------------------------------------------------




----------------------------------------- Iteration    1(   2)  ---------------------------------------


     EDDAV:  cpu time  270.2929: real time  270.4659
       DOS:  cpu time    0.0000: real time    0.0011
    --------------------------------------------
      LOOP:  cpu time  270.3009: real time  270.4749

 eigenvalue-minimisations  :  8032
 total energy-change (2. order) :-0.3377959E+04  (-0.3169160E+04)
 number of electron     400.0000000 magnetization 
 augmentation part      400.0000000 magnetization 

 Free energy of the ion-electron system (eV)
  ---------------------------------------------------
  alpha Z        PSCENC =       370.05370877
  Ewald energy   TEWEN  =    -15704.00914826
  -Hartree energ DENC   =     -7994.06276657
  -exchange      EXHF   =         0.00000000
  -V(xc)+E(xc)   XCENC  =       387.53209662
  PAW double counting   =     20601.23165652   -19855.90553853
  entropy T*S    EENTRO =        -0.00004179
  eigenvalues    EBANDS =     -2355.10124815
  atomic energy  EATOM  =     24749.00668030
  Solvation  Ediel_sol  =         0.00000000
  ---------------------------------------------------
  free energy    TOTEN  =       198.74539891 eV

  energy without entropy =      198.74544070  energy(sigma->0) =      198.74541980


--------------------------------------------------------------------------------------------------------




----------------------------------------- Iteration    1(   3)  ---------------------------------------


     EDDAV:  cpu time  306.8912: real time  307.0829
       DOS:  cpu time    0.0000: real time    0.0003
    --------------------------------------------
      LOOP:  cpu time  306.8912: real time  307.1276

 eigenvalue-minimisations  :  9424
 total energy-change (2. order) :-0.5932300E+03  (-0.5842059E+03)
 number of electron     400.0000000 magnetization 
 augmentation part      400.0000000 magnetization 

 Free energy of the ion-electron system (eV)
  ---------------------------------------------------
  alpha Z        PSCENC =       370.05370877
  Ewald energy   TEWEN  =    -15704.00914826
  -Hartree energ DENC   =     -7994.06276657
  -exchange      EXHF   =         0.00000000
  -V(xc)+E(xc)   XCENC  =       387.53209662
  PAW double counting   =     20601.23165652   -19855.90553853
  entropy T*S    EENTRO =        -0.00000000
  eigenvalues    EBANDS =     -2948.33133117
  atomic energy  EATOM  =     24749.00668030
  Solvation  Ediel_sol  =         0.00000000
  ---------------------------------------------------
  free energy    TOTEN  =      -394.48464232 eV

  energy without entropy =     -394.48464232  energy(sigma->0) =     -394.48464232


--------------------------------------------------------------------------------------------------------




----------------------------------------- Iteration    1(   4)  ---------------------------------------


     EDDAV:  cpu time  314.0276: real time  314.2249
       DOS:  cpu time    0.0000: real time    0.0003
    --------------------------------------------
      LOOP:  cpu time  314.0316: real time  314.3068

 eigenvalue-minimisations  :  9696
 total energy-change (2. order) :-0.4080094E+02  (-0.4062334E+02)
 number of electron     400.0000000 magnetization 
 augmentation part      400.0000000 magnetization 

 Free energy of the ion-electron system (eV)
  ---------------------------------------------------
  alpha Z        PSCENC =       370.05370877
  Ewald energy   TEWEN  =    -15704.00914826
  -Hartree energ DENC   =     -7994.06276657
  -exchange      EXHF   =         0.00000000
  -V(xc)+E(xc)   XCENC  =       387.53209662
  PAW double counting   =     20601.23165652   -19855.90553853
  entropy T*S    EENTRO =        -0.00000000
  eigenvalues    EBANDS =     -2989.13226753
  atomic energy  EATOM  =     24749.00668030
  Solvation  Ediel_sol  =         0.00000000
  ---------------------------------------------------
  free energy    TOTEN  =      -435.28557868 eV

  energy without entropy =     -435.28557868  energy(sigma->0) =     -435.28557868


--------------------------------------------------------------------------------------------------------




----------------------------------------- Iteration    1(   5)  ---------------------------------------


     EDDAV:  cpu time  316.3758: real time  316.5717
       DOS:  cpu time    0.0000: real time    0.0004
    CHARGE:  cpu time    9.2286: real time    9.2367
    MIXING:  cpu time    0.0160: real time    0.0131
    --------------------------------------------
      LOOP:  cpu time  325.6244: real time  325.8557

 eigenvalue-minimisations  :  9784
 total energy-change (2. order) :-0.1498920E+01  (-0.1495887E+01)
 number of electron     400.0000000 magnetization 
 augmentation part        7.5231125 magnetization 

 Broyden mixing:
  rms(total) = 0.28236E+01    rms(broyden)= 0.28236E+01
  rms(prec ) = 0.33716E+01
  weight for this iteration     100.00

 Free energy of the ion-electron system (eV)
  ---------------------------------------------------
  alpha Z        PSCENC =       370.05370877
  Ewald energy   TEWEN  =    -15704.00914826
  -Hartree energ DENC   =     -7994.06276657
  -exchange      EXHF   =         0.00000000
  -V(xc)+E(xc)   XCENC  =       387.53209662
  PAW double counting   =     20601.23165652   -19855.90553853
  entropy T*S    EENTRO =        -0.00000000
  eigenvalues    EBANDS =     -2990.63118721
  atomic energy  EATOM  =     24749.00668030
  Solvation  Ediel_sol  =         0.00000000
  ---------------------------------------------------
  free energy    TOTEN  =      -436.78449836 eV

  energy without entropy =     -436.78449836  energy(sigma->0) =     -436.78449836


--------------------------------------------------------------------------------------------------------




----------------------------------------- Iteration    1(   6)  ---------------------------------------


    POTLOK:  cpu time    0.4400: real time    0.4384
    SETDIJ:  cpu time    0.7520: real time    0.7525
     EDDAV:  cpu time  329.0686: real time  329.2760
       DOS:  cpu time    0.0000: real time    0.0005
    CHARGE:  cpu time    9.2366: real time    9.2417
    MIXING:  cpu time    0.0160: real time    0.0132
    --------------------------------------------
      LOOP:  cpu time  339.5132: real time  339.7565

 eigenvalue-minimisations  : 10248
 total energy-change (2. order) : 0.1941745E+02  (-0.3839578E+01)
 number of electron     400.0000000 magnetization 
 augmentation part        7.8749291 magnetization 

 Broyden mixing:
  rms(total) = 0.14972E+01    rms(broyden)= 0.14972E+01
  rms(prec ) = 0.16777E+01
  weight for this iteration     100.00

 eigenvalues of (default mixing * dielectric matrix)
  average eigenvalue GAMMA=   1.5345
  1.5345

 Free energy of the ion-electron system (eV)
  ---------------------------------------------------
  alpha Z        PSCENC =       370.05370877
  Ewald energy   TEWEN  =    -15704.00914826
  -Hartree energ DENC   =     -8151.94856984
  -exchange      EXHF   =         0.00000000
  -V(xc)+E(xc)   XCENC  =       401.02778383
  PAW double counting   =     22815.41146161   -22066.66403191
  entropy T*S    EENTRO =        -0.00000000
  eigenvalues    EBANDS =     -2830.24492790
  atomic energy  EATOM  =     24749.00668030
  Solvation  Ediel_sol  =         0.00000000
  ---------------------------------------------------
  free energy    TOTEN  =      -417.36704340 eV

  energy without entropy =     -417.36704340  energy(sigma->0) =     -417.36704340


--------------------------------------------------------------------------------------------------------




----------------------------------------- Iteration    1(   7)  ---------------------------------------


    POTLOK:  cpu time    0.4400: real time    0.4399
    SETDIJ:  cpu time    0.7520: real time    0.7523
     EDDAV:  cpu time  325.2043: real time  325.4042
       DOS:  cpu time    0.0000: real time    0.0006
    CHARGE:  cpu time    9.2326: real time    9.2378
    MIXING:  cpu time    0.0120: real time    0.0133
    --------------------------------------------
      LOOP:  cpu time  335.6410: real time  336.8123

 eigenvalue-minimisations  : 10104
 total energy-change (2. order) : 0.2305589E+01  (-0.1566595E+01)
 number of electron     400.0000000 magnetization 
 augmentation part        7.9671953 magnetization 

 Broyden mixing:
  rms(total) = 0.75591E+00    rms(broyden)= 0.75589E+00
  rms(prec ) = 0.80875E+00
  weight for this iteration     100.00

 eigenvalues of (default mixing * dielectric matrix)
  average eigenvalue GAMMA=   1.8941
  1.4640  2.3243

 Free energy of the ion-electron system (eV)
  ---------------------------------------------------
  alpha Z        PSCENC =       370.05370877
  Ewald energy   TEWEN  =    -15704.00914826
  -Hartree energ DENC   =     -8231.61649567
  -exchange      EXHF   =         0.00000000
  -V(xc)+E(xc)   XCENC  =       409.99751049
  PAW double counting   =     25659.07901376   -24908.17478226
  entropy T*S    EENTRO =        -0.00000000
  eigenvalues    EBANDS =     -2759.39794141
  atomic energy  EATOM  =     24749.00668030
  Solvation  Ediel_sol  =         0.00000000
  ---------------------------------------------------
  free energy    TOTEN  =      -415.06145429 eV

  energy without entropy =     -415.06145429  energy(sigma->0) =     -415.06145429


--------------------------------------------------------------------------------------------------------




----------------------------------------- Iteration    1(   8)  ---------------------------------------


    POTLOK:  cpu time    0.4360: real time    0.4371
    SETDIJ:  cpu time    0.7520: real time    0.7531
     EDDAV:  cpu time  286.1579: real time  286.3372
       DOS:  cpu time    0.0000: real time    0.0007
    CHARGE:  cpu time    9.2326: real time    9.2360
    MIXING:  cpu time    0.0120: real time    0.0135
    --------------------------------------------
      LOOP:  cpu time  296.5945: real time  296.8097

 eigenvalue-minimisations  :  8616
 total energy-change (2. order) : 0.1675296E+00  (-0.3363675E+00)
 number of electron     400.0000000 magnetization 
 augmentation part        7.8458876 magnetization 

 Broyden mixing:
  rms(total) = 0.18352E+00    rms(broyden)= 0.18352E+00
  rms(prec ) = 0.22536E+00
  weight for this iteration     100.00

 eigenvalues of (default mixing * dielectric matrix)
  average eigenvalue GAMMA=   1.6112
  2.4112  1.2112  1.2112

 Free energy of the ion-electron system (eV)
  ---------------------------------------------------
  alpha Z        PSCENC =       370.05370877
  Ewald energy   TEWEN  =    -15704.00914826
  -Hartree energ DENC   =     -8234.70745870
  -exchange      EXHF   =         0.00000000
  -V(xc)+E(xc)   XCENC  =       412.67145505
  PAW double counting   =     27804.03733510   -27054.02339035
  entropy T*S    EENTRO =        -0.00000000
  eigenvalues    EBANDS =     -2757.92310664
  atomic energy  EATOM  =     24749.00668030
  Solvation  Ediel_sol  =         0.00000000
  ---------------------------------------------------
  free energy    TOTEN  =      -414.89392473 eV

  energy without entropy =     -414.89392473  energy(sigma->0) =     -414.89392473


--------------------------------------------------------------------------------------------------------




----------------------------------------- Iteration    1(   9)  ---------------------------------------


    POTLOK:  cpu time    0.4360: real time    0.4375
    SETDIJ:  cpu time    0.7520: real time    0.7527
     EDDAV:  cpu time  302.0109: real time  302.1966
       DOS:  cpu time    0.0000: real time    0.0007
    CHARGE:  cpu time    9.2366: real time    9.2408
    MIXING:  cpu time    0.0120: real time    0.0137
    --------------------------------------------
      LOOP:  cpu time  312.4515: real time  312.7370

 eigenvalue-minimisations  :  9216
 total energy-change (2. order) : 0.7706874E-01  (-0.7235311E-01)
 number of electron     400.0000000 magnetization 
 augmentation part        7.8614282 magnetization 

 Broyden mixing:
  rms(total) = 0.65946E-01    rms(broyden)= 0.65942E-01
  rms(prec ) = 0.75075E-01
  weight for this iteration     100.00

 eigenvalues of (default mixing * dielectric matrix)
  average eigenvalue GAMMA=   1.5392
  2.3168  1.1621  1.1621  1.5160

 Free energy of the ion-electron system (eV)
  ---------------------------------------------------
  alpha Z        PSCENC =       370.05370877
  Ewald energy   TEWEN  =    -15704.00914826
  -Hartree energ DENC   =     -8254.15657291
  -exchange      EXHF   =         0.00000000
  -V(xc)+E(xc)   XCENC  =       413.95619650
  PAW double counting   =     27915.79655938   -27165.93359409
  entropy T*S    EENTRO =         0.00000000
  eigenvalues    EBANDS =     -2739.53068569
  atomic energy  EATOM  =     24749.00668030
  Solvation  Ediel_sol  =         0.00000000
  ---------------------------------------------------
  free energy    TOTEN  =      -414.81685599 eV

  energy without entropy =     -414.81685599  energy(sigma->0) =     -414.81685599


--------------------------------------------------------------------------------------------------------




----------------------------------------- Iteration    1(  10)  ---------------------------------------


    POTLOK:  cpu time    0.4360: real time    0.4386
    SETDIJ:  cpu time    0.7520: real time    0.7534
     EDDAV:  cpu time  292.2703: real time  292.4526
       DOS:  cpu time    0.0000: real time    0.0008
    CHARGE:  cpu time    9.2366: real time    9.2420
    MIXING:  cpu time    0.0160: real time    0.0140
    --------------------------------------------
      LOOP:  cpu time  302.7149: real time  302.9550

 eigenvalue-minimisations  :  8848
 total energy-change (2. order) :-0.1148024E-01  (-0.1180672E-01)
 number of electron     400.0000000 magnetization 
 augmentation part        7.8285106 magnetization 

 Broyden mixing:
  rms(total) = 0.46259E-01    rms(broyden)= 0.46259E-01
  rms(prec ) = 0.53434E-01
  weight for this iteration     100.00

 eigenvalues of (default mixing * dielectric matrix)
  average eigenvalue GAMMA=   1.4389
  2.3964  1.8266  1.0738  1.0738  0.8237

 Free energy of the ion-electron system (eV)
  ---------------------------------------------------
  alpha Z        PSCENC =       370.05370877
  Ewald energy   TEWEN  =    -15704.00914826
  -Hartree energ DENC   =     -8255.80024351
  -exchange      EXHF   =         0.00000000
  -V(xc)+E(xc)   XCENC  =       414.04459613
  PAW double counting   =     27910.55128780   -27161.06975901
  entropy T*S    EENTRO =         0.00000000
  eigenvalues    EBANDS =     -2737.60545846
  atomic energy  EATOM  =     24749.00668030
  Solvation  Ediel_sol  =         0.00000000
  ---------------------------------------------------
  free energy    TOTEN  =      -414.82833623 eV

  energy without entropy =     -414.82833623  energy(sigma->0) =     -414.82833623


--------------------------------------------------------------------------------------------------------




----------------------------------------- Iteration    1(  11)  ---------------------------------------


    POTLOK:  cpu time    0.4400: real time    0.4380
    SETDIJ:  cpu time    0.7520: real time    0.7543
     EDDAV:  cpu time  310.9634: real time  311.1565
       DOS:  cpu time    0.0000: real time    0.0009
    CHARGE:  cpu time    9.2366: real time    9.2425
    MIXING:  cpu time    0.0120: real time    0.0142
    --------------------------------------------
      LOOP:  cpu time  321.4081: real time  321.6486

 eigenvalue-minimisations  :  9560
 total energy-change (2. order) : 0.3929435E-03  (-0.1480966E-02)
 number of electron     400.0000000 magnetization 
 augmentation part        7.8303316 magnetization 

 Broyden mixing:
  rms(total) = 0.21103E-01    rms(broyden)= 0.21102E-01
  rms(prec ) = 0.24888E-01
  weight for this iteration     100.00

 eigenvalues of (default mixing * dielectric matrix)
  average eigenvalue GAMMA=   1.4954
  2.3950  1.9746  1.4223  1.0267  1.0770  1.0770

 Free energy of the ion-electron system (eV)
  ---------------------------------------------------
  alpha Z        PSCENC =       370.05370877
  Ewald energy   TEWEN  =    -15704.00914826
  -Hartree energ DENC   =     -8255.14756373
  -exchange      EXHF   =         0.00000000
  -V(xc)+E(xc)   XCENC  =       414.06128456
  PAW double counting   =     27945.41329221   -27196.02386771
  entropy T*S    EENTRO =        -0.00000000
  eigenvalues    EBANDS =     -2738.18232943
  atomic energy  EATOM  =     24749.00668030
  Solvation  Ediel_sol  =         0.00000000
  ---------------------------------------------------
  free energy    TOTEN  =      -414.82794329 eV

  energy without entropy =     -414.82794329  energy(sigma->0) =     -414.82794329


--------------------------------------------------------------------------------------------------------




----------------------------------------- Iteration    1(  12)  ---------------------------------------


    POTLOK:  cpu time    0.4360: real time    0.4389
    SETDIJ:  cpu time    0.7560: real time    0.7551
     EDDAV:  cpu time  324.8123: real time  325.0152
       DOS:  cpu time    0.0000: real time    0.0007
    CHARGE:  cpu time    9.2366: real time    9.2420
    MIXING:  cpu time    0.0120: real time    0.0146
    --------------------------------------------
      LOOP:  cpu time  335.2610: real time  335.4786

 eigenvalue-minimisations  : 10088
 total energy-change (2. order) :-0.1429658E-02  (-0.9277637E-03)
 number of electron     400.0000000 magnetization 
 augmentation part        7.8421353 magnetization 

 Broyden mixing:
  rms(total) = 0.98219E-02    rms(broyden)= 0.98215E-02
  rms(prec ) = 0.11850E-01
  weight for this iteration     100.00

 eigenvalues of (default mixing * dielectric matrix)
  average eigenvalue GAMMA=   1.4645
  2.6265  2.3106  1.2351  1.2351  0.9264  0.9588  0.9588

 Free energy of the ion-electron system (eV)
  ---------------------------------------------------
  alpha Z        PSCENC =       370.05370877
  Ewald energy   TEWEN  =    -15704.00914826
  -Hartree energ DENC   =     -8255.62370935
  -exchange      EXHF   =         0.00000000
  -V(xc)+E(xc)   XCENC  =       414.11589707
  PAW double counting   =     27935.73203752   -27186.39443903
  entropy T*S    EENTRO =         0.00000000
  eigenvalues    EBANDS =     -2737.71039997
  atomic energy  EATOM  =     24749.00668030
  Solvation  Ediel_sol  =         0.00000000
  ---------------------------------------------------
  free energy    TOTEN  =      -414.82937295 eV

  energy without entropy =     -414.82937295  energy(sigma->0) =     -414.82937295


--------------------------------------------------------------------------------------------------------




----------------------------------------- Iteration    1(  13)  ---------------------------------------


    POTLOK:  cpu time    0.4360: real time    0.4378
    SETDIJ:  cpu time    0.7560: real time    0.7553
     EDDAV:  cpu time  273.2771: real time  273.4460
       DOS:  cpu time    0.0000: real time    0.0004
    CHARGE:  cpu time    9.2366: real time    9.2415
    MIXING:  cpu time    0.0160: real time    0.0148
    --------------------------------------------
      LOOP:  cpu time  283.7257: real time  284.0259

 eigenvalue-minimisations  :  8128
 total energy-change (2. order) :-0.2728488E-03  (-0.1158802E-03)
 number of electron     400.0000000 magnetization 
 augmentation part        7.8406764 magnetization 

 Broyden mixing:
  rms(total) = 0.66383E-02    rms(broyden)= 0.66381E-02
  rms(prec ) = 0.76172E-02
  weight for this iteration     100.00

 eigenvalues of (default mixing * dielectric matrix)
  average eigenvalue GAMMA=   1.4447
  2.5589  2.3619  1.4636  1.1860  0.9910  0.9910  1.0024  1.0024

 Free energy of the ion-electron system (eV)
  ---------------------------------------------------
  alpha Z        PSCENC =       370.05370877
  Ewald energy   TEWEN  =    -15704.00914826
  -Hartree energ DENC   =     -8256.00029213
  -exchange      EXHF   =         0.00000000
  -V(xc)+E(xc)   XCENC  =       414.14773608
  PAW double counting   =     27936.44375782   -27187.13456522
  entropy T*S    EENTRO =         0.00000000
  eigenvalues    EBANDS =     -2737.33752314
  atomic energy  EATOM  =     24749.00668030
  Solvation  Ediel_sol  =         0.00000000
  ---------------------------------------------------
  free energy    TOTEN  =      -414.82964579 eV

  energy without entropy =     -414.82964579  energy(sigma->0) =     -414.82964579


--------------------------------------------------------------------------------------------------------




----------------------------------------- Iteration    1(  14)  ---------------------------------------


    POTLOK:  cpu time    0.4360: real time    0.4371
    SETDIJ:  cpu time    0.7560: real time    0.7555
     EDDAV:  cpu time  297.9826: real time  298.1695
       DOS:  cpu time    0.0000: real time    0.0005
    CHARGE:  cpu time    9.2366: real time    9.2454
    MIXING:  cpu time    0.0160: real time    0.0151
    --------------------------------------------
      LOOP:  cpu time  308.4313: real time  308.6432

 eigenvalue-minimisations  :  9064
 total energy-change (2. order) :-0.5080938E-04  (-0.2489505E-04)
 number of electron     400.0000000 magnetization 
 augmentation part        7.8409538 magnetization 

 Broyden mixing:
  rms(total) = 0.29227E-02    rms(broyden)= 0.29226E-02
  rms(prec ) = 0.34525E-02
  weight for this iteration     100.00

 eigenvalues of (default mixing * dielectric matrix)
  average eigenvalue GAMMA=   1.5531
  2.7751  2.7751  1.9595  1.0410  1.0410  1.3244  0.9662  1.0477  1.0477

 Free energy of the ion-electron system (eV)
  ---------------------------------------------------
  alpha Z        PSCENC =       370.05370877
  Ewald energy   TEWEN  =    -15704.00914826
  -Hartree energ DENC   =     -8256.26180685
  -exchange      EXHF   =         0.00000000
  -V(xc)+E(xc)   XCENC  =       414.16513810
  PAW double counting   =     27932.35735531   -27183.03056955
  entropy T*S    EENTRO =         0.00000000
  eigenvalues    EBANDS =     -2737.11105441
  atomic energy  EATOM  =     24749.00668030
  Solvation  Ediel_sol  =         0.00000000
  ---------------------------------------------------
  free energy    TOTEN  =      -414.82969660 eV

  energy without entropy =     -414.82969660  energy(sigma->0) =     -414.82969660


--------------------------------------------------------------------------------------------------------




----------------------------------------- Iteration    1(  15)  ---------------------------------------


    POTLOK:  cpu time    0.4400: real time    0.4396
    SETDIJ:  cpu time    0.7520: real time    0.7561
     EDDAV:  cpu time  276.0052: real time  276.1743
       DOS:  cpu time    0.0000: real time    0.0008
    CHARGE:  cpu time    9.2286: real time    9.2344
    MIXING:  cpu time    0.0160: real time    0.0155
    --------------------------------------------
      LOOP:  cpu time  286.4459: real time  286.7052

 eigenvalue-minimisations  :  8232
 total energy-change (2. order) :-0.5278955E-04  (-0.1372843E-04)
 number of electron     400.0000000 magnetization 
 augmentation part        7.8406339 magnetization 

 Broyden mixing:
  rms(total) = 0.11260E-02    rms(broyden)= 0.11258E-02
  rms(prec ) = 0.12686E-02
  weight for this iteration     100.00

 eigenvalues of (default mixing * dielectric matrix)
  average eigenvalue GAMMA=   1.4997
  2.9907  2.4626  2.0891  1.5153  1.0183  1.0183  1.0583  1.0583  0.9170  0.8689

 Free energy of the ion-electron system (eV)
  ---------------------------------------------------
  alpha Z        PSCENC =       370.05370877
  Ewald energy   TEWEN  =    -15704.00914826
  -Hartree energ DENC   =     -8256.54896287
  -exchange      EXHF   =         0.00000000
  -V(xc)+E(xc)   XCENC  =       414.18410697
  PAW double counting   =     27927.14887970   -27177.80428433
  entropy T*S    EENTRO =         0.00000000
  eigenvalues    EBANDS =     -2736.86072967
  atomic energy  EATOM  =     24749.00668030
  Solvation  Ediel_sol  =         0.00000000
  ---------------------------------------------------
  free energy    TOTEN  =      -414.82974939 eV

  energy without entropy =     -414.82974939  energy(sigma->0) =     -414.82974939


--------------------------------------------------------------------------------------------------------




----------------------------------------- Iteration    1(  16)  ---------------------------------------


    POTLOK:  cpu time    0.4360: real time    0.4379
    SETDIJ:  cpu time    0.7560: real time    0.7543
     EDDAV:  cpu time  334.8009: real time  335.0091
       DOS:  cpu time    0.0000: real time    0.0008
    CHARGE:  cpu time    9.2406: real time    9.2483
    MIXING:  cpu time    0.0160: real time    0.0158
    --------------------------------------------
      LOOP:  cpu time  345.2536: real time  345.5157

 eigenvalue-minimisations  : 10456
 total energy-change (2. order) :-0.4185684E-05  (-0.1803390E-05)
 number of electron     400.0000000 magnetization 
 augmentation part        7.8404278 magnetization 

 Broyden mixing:
  rms(total) = 0.12610E-02    rms(broyden)= 0.12609E-02
  rms(prec ) = 0.14193E-02
  weight for this iteration     100.00

 eigenvalues of (default mixing * dielectric matrix)
  average eigenvalue GAMMA=   1.4403
  3.0316  2.3565  1.8106  1.8106  1.0730  1.0730  1.0625  1.0625  1.0403  0.8694
  0.6532

 Free energy of the ion-electron system (eV)
  ---------------------------------------------------
  alpha Z        PSCENC =       370.05370877
  Ewald energy   TEWEN  =    -15704.00914826
  -Hartree energ DENC   =     -8256.58045263
  -exchange      EXHF   =         0.00000000
  -V(xc)+E(xc)   XCENC  =       414.18704957
  PAW double counting   =     27928.13577657   -27178.78946771
  entropy T*S    EENTRO =         0.00000000
  eigenvalues    EBANDS =     -2736.83390019
  atomic energy  EATOM  =     24749.00668030
  Solvation  Ediel_sol  =         0.00000000
  ---------------------------------------------------
[...]
   0.179E+02 0.221E-01 0.418E+02   -.186E+02 -.269E-01 -.458E+02   0.107E+01 0.527E-02 0.506E+01   -.208E-05 -.554E-09 0.539E-05
   -.540E+01 0.550E-01 0.471E+02   0.660E+01 -.594E-01 -.508E+02   -.161E+01 0.461E-02 0.488E+01   0.989E-06 0.149E-06 0.284E-05
   0.258E+02 -.383E+02 -.193E+02   -.278E+02 0.426E+02 0.214E+02   0.239E+01 -.444E+01 -.231E+01   -.512E-06 -.445E-05 -.346E-05
   0.321E+02 -.391E+02 -.209E+00   -.348E+02 0.434E+02 0.106E+01   0.314E+01 -.444E+01 -.867E+00   0.294E-06 -.221E-06 0.191E-05
   0.321E+02 -.391E+02 -.210E+00   -.348E+02 0.434E+02 0.106E+01   0.314E+01 -.444E+01 -.867E+00   0.114E-05 -.367E-06 0.218E-05
   0.258E+02 -.383E+02 -.193E+02   -.278E+02 0.426E+02 0.214E+02   0.239E+01 -.444E+01 -.231E+01   -.108E-05 -.467E-05 -.409E-05
   0.321E+02 -.391E+02 -.209E+00   -.348E+02 0.434E+02 0.106E+01   0.314E+01 -.444E+01 -.867E+00   0.195E-07 -.623E-06 0.181E-05
   0.258E+02 -.383E+02 -.193E+02   -.278E+02 0.426E+02 0.214E+02   0.239E+01 -.444E+01 -.231E+01   0.141E-06 -.518E-05 -.341E-05
   0.258E+02 -.383E+02 -.193E+02   -.278E+02 0.426E+02 0.214E+02   0.239E+01 -.444E+01 -.231E+01   -.741E-06 -.432E-05 -.355E-05
   0.321E+02 -.391E+02 -.210E+00   -.348E+02 0.434E+02 0.106E+01   0.314E+01 -.444E+01 -.867E+00   0.761E-06 -.133E-06 0.263E-05
   0.257E+02 0.383E+02 -.193E+02   -.277E+02 -.426E+02 0.215E+02   0.238E+01 0.444E+01 -.232E+01   -.451E-06 0.454E-05 -.366E-05
   0.321E+02 0.391E+02 -.301E+00   -.348E+02 -.434E+02 0.116E+01   0.314E+01 0.444E+01 -.878E+00   0.114E-06 0.232E-06 0.157E-05
   0.321E+02 0.391E+02 -.301E+00   -.348E+02 -.434E+02 0.116E+01   0.314E+01 0.444E+01 -.878E+00   0.114E-05 0.201E-06 0.251E-05
   0.257E+02 0.383E+02 -.193E+02   -.277E+02 -.426E+02 0.215E+02   0.238E+01 0.444E+01 -.232E+01   -.100E-05 0.474E-05 -.390E-05
   0.321E+02 0.391E+02 -.301E+00   -.348E+02 -.434E+02 0.116E+01   0.314E+01 0.444E+01 -.878E+00   0.462E-07 -.824E-07 0.218E-05
   0.257E+02 0.383E+02 -.193E+02   -.277E+02 -.426E+02 0.215E+02   0.238E+01 0.444E+01 -.232E+01   -.125E-06 0.441E-05 -.325E-05
   0.257E+02 0.383E+02 -.193E+02   -.277E+02 -.426E+02 0.215E+02   0.238E+01 0.444E+01 -.232E+01   -.709E-06 0.495E-05 -.372E-05
   0.321E+02 0.391E+02 -.301E+00   -.348E+02 -.434E+02 0.116E+01   0.314E+01 0.444E+01 -.878E+00   0.896E-06 0.104E-05 0.226E-05
   -.271E+02 -.472E+02 0.228E+02   0.297E+02 0.522E+02 -.252E+02   -.301E+01 -.529E+01 0.268E+01   -.819E-06 0.650E-05 -.291E-05
   -.392E+02 -.465E+02 0.119E+02   0.425E+02 0.514E+02 -.128E+02   -.384E+01 -.524E+01 0.899E+00   0.972E-05 0.101E-04 -.110E-05
   -.392E+02 -.465E+02 0.119E+02   0.425E+02 0.514E+02 -.128E+02   -.384E+01 -.524E+01 0.899E+00   0.968E-05 0.101E-04 -.211E-05
   -.271E+02 -.472E+02 0.228E+02   0.297E+02 0.522E+02 -.252E+02   -.301E+01 -.529E+01 0.268E+01   -.107E-05 0.616E-05 -.264E-05
   -.392E+02 -.465E+02 0.119E+02   0.425E+02 0.514E+02 -.128E+02   -.384E+01 -.524E+01 0.899E+00   0.862E-05 0.867E-05 -.588E-06
   -.271E+02 -.472E+02 0.228E+02   0.297E+02 0.522E+02 -.252E+02   -.301E+01 -.529E+01 0.268E+01   -.461E-06 0.601E-05 -.302E-05
   -.271E+02 -.472E+02 0.228E+02   0.297E+02 0.522E+02 -.252E+02   -.301E+01 -.529E+01 0.268E+01   -.147E-05 0.608E-05 -.252E-05
   -.392E+02 -.465E+02 0.119E+02   0.425E+02 0.514E+02 -.128E+02   -.384E+01 -.524E+01 0.899E+00   0.983E-05 0.107E-04 -.136E-05
   -.272E+02 0.471E+02 0.227E+02   0.298E+02 -.521E+02 -.252E+02   -.303E+01 0.528E+01 0.268E+01   -.679E-06 -.691E-05 -.308E-05
   -.391E+02 0.465E+02 0.117E+02   0.425E+02 -.515E+02 -.126E+02   -.383E+01 0.525E+01 0.878E+00   0.978E-05 -.971E-05 -.142E-05
   -.391E+02 0.465E+02 0.117E+02   0.425E+02 -.515E+02 -.126E+02   -.383E+01 0.525E+01 0.878E+00   0.935E-05 -.101E-04 -.169E-05
   -.272E+02 0.471E+02 0.227E+02   0.298E+02 -.521E+02 -.252E+02   -.303E+01 0.528E+01 0.268E+01   -.976E-06 -.615E-05 -.243E-05
   -.391E+02 0.465E+02 0.117E+02   0.425E+02 -.515E+02 -.126E+02   -.383E+01 0.525E+01 0.878E+00   0.889E-05 -.103E-04 -.361E-06
   -.272E+02 0.471E+02 0.227E+02   0.298E+02 -.521E+02 -.252E+02   -.303E+01 0.528E+01 0.268E+01   -.278E-06 -.670E-05 -.271E-05
   -.272E+02 0.471E+02 0.227E+02   0.298E+02 -.521E+02 -.252E+02   -.303E+01 0.528E+01 0.268E+01   -.185E-05 -.491E-05 -.284E-05
   -.391E+02 0.465E+02 0.117E+02   0.425E+02 -.515E+02 -.126E+02   -.383E+01 0.525E+01 0.878E+00   0.980E-05 -.949E-05 -.162E-05
   -.142E+02 -.275E-01 -.524E+02   0.152E+02 0.298E-01 0.567E+02   -.160E+01 -.362E-03 -.545E+01   -.194E-05 0.950E-08 0.394E-05
   0.162E+02 -.537E-01 -.575E+02   -.177E+02 0.632E-01 0.625E+02   0.182E+01 -.109E-01 -.602E+01   -.328E-05 0.766E-06 0.122E-04
   0.162E+02 -.537E-01 -.575E+02   -.177E+02 0.632E-01 0.625E+02   0.182E+01 -.109E-01 -.602E+01   -.388E-05 -.610E-06 0.124E-04
   -.142E+02 -.275E-01 -.524E+02   0.152E+02 0.298E-01 0.567E+02   -.160E+01 -.362E-03 -.545E+01   -.162E-05 -.129E-06 0.442E-05
   0.162E+02 -.537E-01 -.575E+02   -.177E+02 0.632E-01 0.625E+02   0.182E+01 -.109E-01 -.602E+01   -.368E-05 -.109E-05 0.130E-04
   -.142E+02 -.275E-01 -.524E+02   0.152E+02 0.298E-01 0.567E+02   -.160E+01 -.362E-03 -.545E+01   -.153E-05 -.378E-06 0.423E-05
   -.142E+02 -.275E-01 -.524E+02   0.152E+02 0.298E-01 0.567E+02   -.160E+01 -.362E-03 -.545E+01   -.156E-05 0.509E-06 0.726E-05
   0.162E+02 -.537E-01 -.575E+02   -.177E+02 0.632E-01 0.625E+02   0.182E+01 -.109E-01 -.602E+01   -.390E-05 0.115E-05 0.125E-04
   -.270E+02 0.154E+02 -.931E+01   0.261E+02 -.154E+02 0.897E+01   0.941E+00 -.745E-01 0.326E+00   0.716E-05 -.167E-05 -.202E-04
   -.270E+02 -.153E+02 -.933E+01   0.261E+02 0.152E+02 0.899E+01   0.944E+00 0.833E-01 0.328E+00   0.172E-04 0.298E-05 -.387E-05
   -.270E+02 -.153E+02 -.933E+01   0.261E+02 0.152E+02 0.899E+01   0.944E+00 0.833E-01 0.328E+00   0.635E-05 0.166E-05 -.123E-04
   -.270E+02 0.154E+02 -.931E+01   0.261E+02 -.154E+02 0.897E+01   0.941E+00 -.745E-01 0.326E+00   0.160E-04 -.412E-05 0.348E-05
   -.270E+02 -.153E+02 -.933E+01   0.261E+02 0.152E+02 0.899E+01   0.944E+00 0.833E-01 0.328E+00   0.527E-05 0.133E-04 0.176E-04
   -.270E+02 0.154E+02 -.931E+01   0.261E+02 -.154E+02 0.897E+01   0.941E+00 -.745E-01 0.326E+00   0.126E-04 -.800E-05 -.885E-07
   -.270E+02 0.154E+02 -.931E+01   0.261E+02 -.154E+02 0.897E+01   0.941E+00 -.745E-01 0.326E+00   0.555E-05 -.135E-04 0.101E-04
   -.270E+02 -.153E+02 -.933E+01   0.261E+02 0.152E+02 0.899E+01   0.944E+00 0.833E-01 0.328E+00   0.127E-04 0.819E-05 -.868E-05
   -.157E+02 -.710E+01 0.454E+01   0.158E+02 0.732E+01 -.448E+01   -.445E-01 -.222E+00 -.586E-01   0.796E-05 0.118E-04 -.902E-06
   -.160E+02 0.719E+01 0.452E+01   0.161E+02 -.741E+01 -.445E+01   -.497E-01 0.221E+00 -.587E-01   0.119E-04 -.878E-05 0.535E-05
   -.160E+02 0.719E+01 0.452E+01   0.161E+02 -.741E+01 -.445E+01   -.497E-01 0.221E+00 -.587E-01   0.811E-05 -.119E-04 -.384E-05
   -.157E+02 -.710E+01 0.454E+01   0.158E+02 0.732E+01 -.448E+01   -.445E-01 -.222E+00 -.586E-01   0.119E-04 0.856E-05 0.186E-05
   -.160E+02 0.719E+01 0.452E+01   0.161E+02 -.741E+01 -.445E+01   -.497E-01 0.221E+00 -.587E-01   0.916E-05 -.760E-05 0.297E-05
   -.157E+02 -.710E+01 0.454E+01   0.158E+02 0.732E+01 -.448E+01   -.445E-01 -.222E+00 -.586E-01   0.116E-04 0.818E-05 -.320E-05
   -.157E+02 -.710E+01 0.454E+01   0.158E+02 0.732E+01 -.448E+01   -.445E-01 -.222E+00 -.586E-01   0.920E-05 0.765E-05 0.626E-05
   -.160E+02 0.719E+01 0.452E+01   0.161E+02 -.741E+01 -.445E+01   -.497E-01 0.221E+00 -.587E-01   0.113E-04 -.839E-05 0.867E-06
   -.543E+02 -.432E-01 -.209E+01   0.551E+02 0.440E-01 0.246E+01   -.883E+00 -.835E-03 -.448E+00   -.989E-05 -.255E-05 -.143E-04
   0.275E+02 -.482E-01 -.126E+02   -.284E+02 0.494E-01 0.137E+02   0.122E+01 -.132E-02 -.147E+01   0.255E-04 -.152E-05 -.239E-05
   0.275E+02 -.482E-01 -.126E+02   -.284E+02 0.494E-01 0.137E+02   0.122E+01 -.132E-02 -.147E+01   0.238E-04 0.252E-05 0.376E-05
   -.543E+02 -.432E-01 -.209E+01   0.551E+02 0.440E-01 0.246E+01   -.883E+00 -.835E-03 -.448E+00   -.634E-05 0.167E-05 -.173E-04
   0.275E+02 -.482E-01 -.126E+02   -.284E+02 0.494E-01 0.137E+02   0.122E+01 -.132E-02 -.147E+01   0.227E-04 0.432E-07 -.606E-05
   -.543E+02 -.432E-01 -.209E+01   0.551E+02 0.440E-01 0.246E+01   -.883E+00 -.835E-03 -.448E+00   -.817E-05 0.164E-05 -.179E-04
   -.543E+02 -.432E-01 -.209E+01   0.551E+02 0.440E-01 0.246E+01   -.883E+00 -.835E-03 -.448E+00   -.107E-04 -.936E-07 -.223E-04
   0.275E+02 -.482E-01 -.126E+02   -.284E+02 0.494E-01 0.137E+02   0.122E+01 -.132E-02 -.147E+01   0.281E-04 -.125E-05 -.243E-05
   0.108E+02 0.173E+02 -.163E+02   -.103E+02 -.168E+02 0.158E+02   -.725E+00 -.103E+01 0.924E+00   -.755E-05 0.449E-06 0.554E-05
   0.108E+02 -.174E+02 -.165E+02   -.103E+02 0.169E+02 0.160E+02   -.728E+00 0.104E+01 0.931E+00   -.257E-05 0.164E-05 0.669E-05
   0.108E+02 -.174E+02 -.165E+02   -.103E+02 0.169E+02 0.160E+02   -.728E+00 0.104E+01 0.931E+00   -.644E-05 -.714E-06 0.681E-05
   0.108E+02 0.173E+02 -.163E+02   -.103E+02 -.168E+02 0.158E+02   -.725E+00 -.103E+01 0.924E+00   -.409E-05 -.136E-05 0.804E-05
   0.108E+02 -.174E+02 -.165E+02   -.103E+02 0.169E+02 0.160E+02   -.728E+00 0.104E+01 0.931E+00   -.426E-05 0.169E-05 0.132E-04
   0.108E+02 0.173E+02 -.163E+02   -.103E+02 -.168E+02 0.158E+02   -.725E+00 -.103E+01 0.924E+00   -.862E-05 0.182E-06 0.124E-04
   0.108E+02 0.173E+02 -.163E+02   -.103E+02 -.168E+02 0.158E+02   -.725E+00 -.103E+01 0.924E+00   -.246E-05 -.313E-05 0.111E-04
   0.108E+02 -.174E+02 -.165E+02   -.103E+02 0.169E+02 0.160E+02   -.728E+00 0.104E+01 0.931E+00   -.876E-05 0.136E-05 0.103E-04
 -----------------------------------------------------------------------------------------------
   -.601E+02 -.711E-01 -.155E+02   -.130E-12 0.391E-13 0.384E-12   0.601E+02 0.711E-01 0.155E+02   -.115E-03 0.292E-06 -.320E-04
 
 
 POSITION                                       TOTAL-FORCE (eV/Angst)
 -----------------------------------------------------------------------------------
      2.52909      3.11213      2.93644         0.513021     -0.002048     -0.438131
      8.77888      3.11611      3.02290         0.739895     -0.003043     -0.020963
      2.49105      9.34392      2.95343         0.739895     -0.003043     -0.020963
      8.81811      9.34185      3.00516         0.513021     -0.002048     -0.438131
      2.56016      3.11520      9.32751         0.739895     -0.003043     -0.020963
      8.88722      3.11313      9.37925         0.513021     -0.002048     -0.438131
      2.59940      9.34094      9.30977         0.513021     -0.002048     -0.438131
      8.84918      9.34492      9.39624         0.739895     -0.003043     -0.020963
      4.04403      3.11409      3.16140        -0.139063     -0.003220      0.428661
      9.98158      3.11694      3.97414        -0.153027     -0.006522     -0.592709
      3.69376      9.34476      3.90467        -0.153027     -0.006522     -0.592709
     10.33305      9.34382      3.23012        -0.139063     -0.003220      0.428661
      3.76287      3.11603     10.27875        -0.153027     -0.006522     -0.592709
     10.40216      3.11509      9.60421        -0.139063     -0.003220      0.428661
      4.11434      9.34290      9.53473        -0.139063     -0.003220      0.428661
     10.05188      9.34576     10.34748        -0.153027     -0.006522     -0.592709
      2.32058      3.11101      1.81620         0.330277      0.000475      1.123453
      9.16667      3.11507      1.95214        -0.410280      0.000260      1.152736
      2.87885      9.34288      1.88266        -0.410280      0.000260      1.152736
      8.60960      9.34074      1.88492         0.330277      0.000475      1.123453
      2.94795      3.11416      8.25675        -0.410280      0.000260      1.152736
      8.67871      3.11201      8.25901         0.330277      0.000475      1.123453
      2.39089      9.33983      8.18953         0.330277      0.000475      1.123453
      9.23697      9.34388      8.32547        -0.410280      0.000260      1.152736
      2.08006      4.01236      3.40779         0.322539     -0.211712     -0.178279
      8.16253      4.02067      3.21781         0.354032     -0.212826     -0.016396
      1.87471     10.24848      3.14834         0.354032     -0.212826     -0.016396
      8.36908     10.24208      3.47652         0.322539     -0.211712     -0.178279
      1.94382      4.01976      9.52242         0.354032     -0.212826     -0.016396
      8.43819      4.01336      9.85060         0.322539     -0.211712     -0.178279
      2.15037     10.24117      9.78113         0.322539     -0.211712     -0.178279
      8.23283     10.24948      9.59115         0.354032     -0.212826     -0.016396
      2.08252      2.21140      3.40934         0.321231      0.214168     -0.180999
      8.16241      2.21202      3.21995         0.354533      0.214487     -0.019004
      1.87459      8.43983      3.15048         0.354533      0.214487     -0.019004
      8.37153      8.44113      3.47807         0.321231      0.214168     -0.180999
      1.94370      2.21111      9.52457         0.354533      0.214487     -0.019004
      8.44064      2.21241      9.85215         0.321231      0.214168     -0.180999
      2.15282      8.44022      9.78268         0.321231      0.214168     -0.180999
      8.23272      8.44083      9.59329         0.354533      0.214487     -0.019004
      4.51665      3.95776      2.73529        -0.384484     -0.290704      0.222940
     10.59931      3.96444      3.82256        -0.475038     -0.334284     -0.021458
      4.31149     10.19225      3.75309        -0.475038     -0.334284     -0.021458
     10.80566     10.18749      2.80401        -0.384484     -0.290704      0.222940
      4.38060      3.96352     10.12717        -0.475038     -0.334284     -0.021458
     10.87477      3.95877      9.17810        -0.384484     -0.290704      0.222940
      4.58695     10.18658      9.10862        -0.384484     -0.290704      0.222940
     10.66961     10.19325     10.19590        -0.475038     -0.334284     -0.021458
      4.51892      2.27127      2.73576        -0.388655      0.292145      0.221330
     10.59854      2.26822      3.82573        -0.477159      0.336840     -0.025993
      4.31071      8.49603      3.75626        -0.477159      0.336840     -0.025993
     10.80793      8.50100      2.80449        -0.388655      0.292145      0.221330
      4.37982      2.26731     10.13034        -0.477159      0.336840     -0.025993
     10.87704      2.27227      9.17857        -0.388655      0.292145      0.221330
      4.58922      8.50009      9.10910        -0.388655      0.292145      0.221330
     10.66884      8.49704     10.19907        -0.477159      0.336840     -0.025993
      4.34462      3.11423      4.21773        -0.624189      0.001991     -1.098456
      9.66939      3.11905      5.00100         0.258880     -0.001313     -1.037237
      3.38157      9.34686      4.93152         0.258880     -0.001313     -1.037237
     10.63364      9.34396      4.28645        -0.624189      0.001991     -1.098456
      3.45068      3.11814     11.30561         0.258880     -0.001313     -1.037237
     10.70274      3.11523     10.66054        -0.624189      0.001991     -1.098456
      4.41492      9.34304     10.59106        -0.624189      0.001991     -1.098456
      9.73969      9.34787     11.37433         0.258880     -0.001313     -1.037237
      6.01047      6.18207      6.29588         0.025994     -0.029837     -0.009846
     12.29908      6.27807      6.36523         0.026592      0.029780     -0.009622
      6.01007      0.04834      6.29650         0.026592      0.029780     -0.009622
     12.29948     12.41180      6.36460         0.025994     -0.029837     -0.009846
      6.08037      6.27715     12.66984         0.026592      0.029780     -0.009622
     12.36859      6.18307     12.73869         0.025994     -0.029837     -0.009846
      6.08077     12.41089     12.66921         0.025994     -0.029837     -0.009846
     12.36819      0.04934     12.73931         0.026592      0.029780     -0.009622
      5.75185      6.32792      3.09095         0.019537     -0.004549      0.008964
     12.04248      6.13214      3.15997         0.019536      0.003745      0.009116
      5.75466     12.35995      3.09050         0.019536      0.003745      0.009116
     12.03967      0.10011      3.16042         0.019537     -0.004549      0.008964
      5.82377      6.13123      9.46458         0.019536      0.003745      0.009116
     12.10997      6.32892      9.53376         0.019537     -0.004549      0.008964
      5.82095      0.09919      9.46503         0.019537     -0.004549      0.008964
     12.11279     12.36095      9.53331         0.019536      0.003745      0.009116
      6.39291      3.11492      0.18753        -0.040418      0.000026     -0.077079
     11.20939      3.11601      0.30713         0.267548     -0.000074     -0.370984
      4.92157      9.34382      0.23766         0.267548     -0.000074     -0.370984
      0.10509      9.34273      0.11806        -0.040418      0.000026     -0.077079
      4.99068      3.11509      6.61174         0.267548     -0.000074     -0.370984
      0.17420      3.11401      6.49214        -0.040418      0.000026     -0.077079
      6.46321      9.34374      6.56087        -0.040418      0.000026     -0.077079
     11.27969      9.34482      6.68047         0.267548     -0.000074     -0.370984
      2.78356      7.06583      5.90996        -0.229289     -0.504744      0.461987
      9.07216      5.39351      5.97738        -0.232010      0.510961      0.467969
      2.78434     11.62132      5.90790        -0.232010      0.510961      0.467969
      9.07138      0.83802      5.97943        -0.229289     -0.504744      0.461987
      2.85345      5.39259     12.28199        -0.232010      0.510961      0.467969
      9.14168      7.06684     12.35277        -0.229289     -0.504744      0.461987
      2.85267      0.83711     12.28404        -0.229289     -0.504744      0.461987
      9.14247     11.62232     12.35071        -0.232010      0.510961      0.467969
 -----------------------------------------------------------------------------------
    total drift:                               -0.000374     -0.000037      0.000513


--------------------------------------------------------------------------------------------------------



  FREE ENERGIE OF THE ION-ELECTRON SYSTEM (eV)
  ---------------------------------------------------
  free  energy   TOTEN  =      -414.82975337 eV

  energy  without entropy=     -414.82975337  energy(sigma->0) =     -414.82975337
 


--------------------------------------------------------------------------------------------------------


    POTLOK:  cpu time    1.2041: real time    1.2048


--------------------------------------------------------------------------------------------------------


     LOOP+:  cpu time 7152.5630: real time 7159.2731
    4ORBIT:  cpu time    0.0000: real time    0.0000

 total amount of memory used by VASP on root node   697522. kBytes
========================================================================

   base      :      30000. kBytes
   nonl-proj :     325712. kBytes
   fftplans  :      80881. kBytes
   grid      :      57435. kBytes
   one-center:        497. kBytes
   wavefun   :     202997. kBytes
 
  
  
 General timing and accounting informations for this job:
 ========================================================
  
                  Total CPU time used (sec):     7201.770
                            User time (sec):     7199.418
                          System time (sec):        2.352
                         Elapsed time (sec):     7208.782
  
                   Maximum memory used (kb):      640128.
                   Average memory used (kb):           0.
  
                          Minor page faults:       280104
                          Major page faults:            0
                 Voluntary context switches:         1951
