 running on   24 total cores
 distrk:  each k-point on   24 cores,    1 groups
 distr:  one band on    3 cores,    8 groups
 using from now: INCAR     
 vasp.5.4.1 24Jun15 (build Nov 25 2015 16:01:35) complex                        
  
 POSCAR found :  5 types and      96 ions
 scaLAPACK will be used

 ----------------------------------------------------------------------------- 
|                                                                             |
|  ADVICE TO THIS USER RUNNING 'VASP/VAMP'   (HEAR YOUR MASTER'S VOICE ...):  |
|                                                                             |
|      You have a (more or less) 'large supercell' and for larger cells       |
|      it might be more efficient to use real space projection opertators     |
|      So try LREAL= Auto  in the INCAR   file.                               |
|      Mind: At the moment your POTCAR file does not contain real space       |
|       projectors, and has to be modified,  BUT if you                       |
|      want to do an extremely  accurate calculation you might also keep the  |
|      reciprocal projection scheme          (i.e. LREAL=.FALSE.)             |
|                                                                             |
 ----------------------------------------------------------------------------- 


 ----------------------------------------------------------------------------- 
|                                                                             |
|  ADVICE TO THIS USER RUNNING 'VASP/VAMP'   (HEAR YOUR MASTER'S VOICE ...):  |
|                                                                             |
|      You enforced a specific xc-type in the INCAR file,                     |
|      a different type was found on the POTCAR file                          |
|          I HOPE YOU KNOW, WHAT YOU ARE  DOING                               |
|                                                                             |
 ----------------------------------------------------------------------------- 

 LDA part: xc-table for Pade appr. of Perdew
 POSCAR, INCAR and KPOINTS ok, starting setup
 WARNING: small aliasing (wrap around) errors must be expected
 FFT: planning ...
 WAVECAR not read
 entering main loop
       N       E                     dE             d eps       ncg     rms          rms(c)
DAV:   1     0.357670392757E+04    0.35767E+04   -0.18920E+05  7176   0.170E+03
DAV:   2     0.198745398905E+03   -0.33780E+04   -0.31692E+04  8032   0.353E+02
DAV:   3    -0.394484642324E+03   -0.59323E+03   -0.58421E+03  9424   0.171E+02
DAV:   4    -0.435285578680E+03   -0.40801E+02   -0.40623E+02  9696   0.493E+01
DAV:   5    -0.436784498359E+03   -0.14989E+01   -0.14959E+01  9784   0.909E+00    0.282E+01
DAV:   6    -0.417367043400E+03    0.19417E+02   -0.38396E+01 10248   0.109E+01    0.150E+01
DAV:   7    -0.415061454286E+03    0.23056E+01   -0.15666E+01 10104   0.682E+00    0.756E+00
DAV:   8    -0.414893924731E+03    0.16753E+00   -0.33637E+00  8616   0.340E+00    0.184E+00
DAV:   9    -0.414816855993E+03    0.77069E-01   -0.72353E-01  9216   0.179E+00    0.659E-01
DAV:  10    -0.414828336231E+03   -0.11480E-01   -0.11807E-01  8848   0.609E-01    0.463E-01
DAV:  11    -0.414827943288E+03    0.39294E-03   -0.14810E-02  9560   0.309E-01    0.211E-01
DAV:  12    -0.414829372946E+03   -0.14297E-02   -0.92776E-03 10088   0.155E-01    0.982E-02
DAV:  13    -0.414829645795E+03   -0.27285E-03   -0.11588E-03  8128   0.729E-02    0.664E-02
DAV:  14    -0.414829696604E+03   -0.50809E-04   -0.24895E-04  9064   0.297E-02    0.292E-02
DAV:  15    -0.414829749394E+03   -0.52790E-04   -0.13728E-04  8232   0.202E-02    0.113E-02
DAV:  16    -0.414829753579E+03   -0.41857E-05   -0.18034E-05 10456   0.825E-03    0.126E-02
DAV:  17    -0.414829752807E+03    0.77215E-06   -0.24353E-06  8480   0.302E-03    0.645E-03
DAV:  18    -0.414829753270E+03   -0.46310E-06   -0.84366E-06  8160   0.479E-03    0.291E-03
DAV:  19    -0.414829753371E+03   -0.10116E-06   -0.98363E-07  9008   0.220E-03    0.297E-03
DAV:  20    -0.414829753356E+03    0.15469E-07   -0.19566E-07  7584   0.874E-04    0.114E-03
DAV:  21    -0.414829753397E+03   -0.41106E-07   -0.23941E-07  8440   0.795E-04    0.627E-04
DAV:  22    -0.414829753380E+03    0.17026E-07   -0.23835E-08  5520   0.481E-04    0.209E-04
DAV:  23    -0.414829753372E+03    0.76107E-08   -0.21827E-09  4632   0.213E-04
   1 F= -.41482975E+03 E0= -.41482975E+03  d E =0.000000E+00
Application 22444963 resources: utime ~172806s, stime ~92s, Rss ~640128, inblocks ~184890, outblocks ~194557
