  96  96   0   0
  0.2080188E+02  0.1257760E-08  0.1245754E-08  0.1274818E-08  0.5000000E-15
  1.000000000000000E-004
  CAR 
 MAPbI3-Cubic                            
     10.02293610    -22.19817791  301      1.13527882      1.00000000
    -22.198  0.0000E+00  0.0000E+00
    -22.091  0.0000E+00  0.0000E+00
    -21.983  0.0000E+00  0.0000E+00
    -21.876  0.0000E+00  0.0000E+00
    -21.769  0.0000E+00  0.0000E+00
    -21.661  0.0000E+00  0.0000E+00
    -21.554  0.0000E+00  0.0000E+00
    -21.446  0.0000E+00  0.0000E+00
    -21.339  0.0000E+00  0.0000E+00
    -21.232  0.0000E+00  0.0000E+00
    -21.124  0.0000E+00  0.0000E+00
    -21.017  0.0000E+00  0.0000E+00
    -20.909  0.0000E+00  0.0000E+00
    -20.802  0.0000E+00  0.0000E+00
    -20.695  0.0000E+00  0.1600E+02
    -20.587  0.0000E+00  0.1600E+02
    -20.480  0.0000E+00  0.1600E+02
    -20.372  0.0000E+00  0.1600E+02
    -20.265  0.0000E+00  0.1600E+02
    -20.158  0.0000E+00  0.1600E+02
    -20.050  0.0000E+00  0.1600E+02
    -19.943  0.0000E+00  0.1600E+02
    -19.835  0.0000E+00  0.1600E+02
    -19.728  0.0000E+00  0.1600E+02
    -19.620  0.0000E+00  0.1600E+02
    -19.513  0.0000E+00  0.1600E+02
    -19.406  0.0000E+00  0.1600E+02
    -19.298  0.0000E+00  0.1600E+02
    -19.191  0.0000E+00  0.1600E+02
    -19.083  0.0000E+00  0.1600E+02
    -18.976  0.0000E+00  0.1600E+02
    -18.869  0.0000E+00  0.1600E+02
    -18.761  0.0000E+00  0.1600E+02
    -18.654  0.0000E+00  0.1600E+02
    -18.546  0.0000E+00  0.1600E+02
    -18.439  0.0000E+00  0.1600E+02
    -18.332  0.0000E+00  0.1600E+02
    -18.224  0.0000E+00  0.1600E+02
    -18.117  0.0000E+00  0.1600E+02
    -18.009  0.0000E+00  0.1600E+02
    -17.902  0.0000E+00  0.1600E+02
    -17.795  0.0000E+00  0.1600E+02
    -17.687  0.0000E+00  0.1600E+02
    -17.580  0.0000E+00  0.1600E+02
    -17.472  0.0000E+00  0.1600E+02
    -17.365  0.0000E+00  0.1600E+02
    -17.258  0.0000E+00  0.1600E+02
    -17.150  0.1283E+03  0.9600E+02
    -17.043  0.0000E+00  0.9600E+02
    -16.935  0.0000E+00  0.9600E+02
    -16.828  0.0000E+00  0.9600E+02
    -16.721  0.0000E+00  0.9600E+02
    -16.613  0.0000E+00  0.9600E+02
    -16.506  0.0000E+00  0.9600E+02
    -16.398  0.0000E+00  0.9600E+02
    -16.291  0.0000E+00  0.9600E+02
    -16.184  0.0000E+00  0.9600E+02
    -16.076  0.0000E+00  0.9600E+02
    -15.969  0.0000E+00  0.9600E+02
    -15.861  0.0000E+00  0.9600E+02
    -15.754  0.0000E+00  0.9600E+02
    -15.647  0.0000E+00  0.9600E+02
    -15.539  0.0000E+00  0.9600E+02
    -15.432  0.0000E+00  0.9600E+02
    -15.324  0.0000E+00  0.9600E+02
    -15.217  0.0000E+00  0.9600E+02
    -15.110  0.0000E+00  0.9600E+02
    -15.002  0.0000E+00  0.9600E+02
    -14.895  0.0000E+00  0.9600E+02
    -14.787  0.0000E+00  0.9600E+02
    -14.680  0.0000E+00  0.9600E+02
    -14.573  0.0000E+00  0.9600E+02
    -14.465  0.0000E+00  0.9600E+02
    -14.358  0.0000E+00  0.9600E+02
    -14.250  0.0000E+00  0.9600E+02
    -14.143  0.0000E+00  0.9600E+02
    -14.035  0.0000E+00  0.9600E+02
    -13.928  0.0000E+00  0.9600E+02
    -13.821  0.0000E+00  0.9600E+02
    -13.713  0.0000E+00  0.9600E+02
    -13.606  0.0000E+00  0.9600E+02
    -13.498  0.0000E+00  0.9600E+02
    -13.391  0.0000E+00  0.9600E+02
    -13.284  0.2858E+02  0.1040E+03
    -13.176  0.0000E+00  0.1120E+03
    -13.069  0.0000E+00  0.1120E+03
    -12.961  0.0000E+00  0.1120E+03
    -12.854  0.0000E+00  0.1120E+03
    -12.747  0.0000E+00  0.1120E+03
    -12.639  0.0000E+00  0.1120E+03
    -12.532  0.0000E+00  0.1120E+03
    -12.424  0.0000E+00  0.1120E+03
    -12.317  0.1379E+01  0.1122E+03
    -12.210  0.1379E+01  0.1143E+03
    -12.102  0.4615E+01  0.1195E+03
    -11.995  0.5287E+01  0.1263E+03
    -11.887  0.2759E+01  0.1291E+03
    -11.780  0.0000E+00  0.1346E+03
    -11.673  0.0000E+00  0.1400E+03
    -11.565  0.6912E+00  0.1441E+03
    -11.458  0.1338E+02  0.1531E+03
    -11.350  0.1379E+01  0.1596E+03
    -11.243  0.0000E+00  0.1600E+03
    -11.136  0.0000E+00  0.1600E+03
    -11.028  0.0000E+00  0.1600E+03
    -10.921  0.0000E+00  0.1600E+03
    -10.813  0.0000E+00  0.1600E+03
    -10.706  0.0000E+00  0.1600E+03
    -10.599  0.0000E+00  0.1600E+03
    -10.491  0.0000E+00  0.1600E+03
    -10.384  0.0000E+00  0.1600E+03
    -10.276  0.0000E+00  0.1600E+03
    -10.169  0.0000E+00  0.1600E+03
    -10.062  0.0000E+00  0.1600E+03
     -9.954  0.0000E+00  0.1600E+03
     -9.847  0.0000E+00  0.1600E+03
     -9.739  0.0000E+00  0.1600E+03
     -9.632  0.0000E+00  0.1600E+03
     -9.525  0.0000E+00  0.1600E+03
     -9.417  0.0000E+00  0.1600E+03
     -9.310  0.0000E+00  0.1600E+03
     -9.202  0.0000E+00  0.1600E+03
     -9.095  0.2497E-07  0.1680E+03
     -8.988  0.0000E+00  0.1880E+03
     -8.880  0.0000E+00  0.1920E+03
     -8.773  0.0000E+00  0.1920E+03
     -8.665  0.0000E+00  0.1920E+03
     -8.558  0.0000E+00  0.1920E+03
     -8.451  0.0000E+00  0.1920E+03
     -8.343  0.0000E+00  0.1920E+03
     -8.236  0.0000E+00  0.1920E+03
     -8.128  0.0000E+00  0.1920E+03
     -8.021  0.7113E-12  0.1920E+03
     -7.913  0.0000E+00  0.1921E+03
     -7.806  0.0000E+00  0.1925E+03
     -7.699  0.0000E+00  0.1934E+03
     -7.591  0.0000E+00  0.1940E+03
     -7.484  0.0000E+00  0.1944E+03
     -7.376  0.0000E+00  0.1964E+03
     -7.269  0.7547E+01  0.1984E+03
     -7.162  0.1874E+00  0.1991E+03
     -7.054  0.5505E+01  0.2024E+03
     -6.947  0.4862E+01  0.2122E+03
     -6.839  0.2311E+01  0.2198E+03
     -6.732  0.0000E+00  0.2216E+03
     -6.625  0.0000E+00  0.2223E+03
     -6.517  0.2710E+01  0.2229E+03
     -6.410  0.0000E+00  0.2235E+03
     -6.302  0.0000E+00  0.2239E+03
     -6.195  0.0000E+00  0.2239E+03
     -6.088  0.0000E+00  0.2240E+03
     -5.980  0.0000E+00  0.2240E+03
     -5.873  0.0000E+00  0.2240E+03
     -5.765  0.0000E+00  0.2240E+03
     -5.658  0.0000E+00  0.2240E+03
     -5.551  0.0000E+00  0.2240E+03
     -5.443  0.0000E+00  0.2240E+03
     -5.336  0.0000E+00  0.2240E+03
     -5.228  0.0000E+00  0.2240E+03
     -5.121  0.0000E+00  0.2240E+03
     -5.014  0.0000E+00  0.2240E+03
     -4.906  0.0000E+00  0.2240E+03
     -4.799  0.1532E+02  0.2270E+03
     -4.691  0.9443E+01  0.2533E+03
     -4.584  0.0000E+00  0.2560E+03
     -4.477  0.0000E+00  0.2560E+03
     -4.369  0.0000E+00  0.2560E+03
     -4.262  0.0000E+00  0.2560E+03
     -4.154  0.0000E+00  0.2560E+03
     -4.047  0.0000E+00  0.2560E+03
     -3.940  0.0000E+00  0.2560E+03
     -3.832  0.0000E+00  0.2560E+03
     -3.725  0.0000E+00  0.2560E+03
     -3.617  0.0000E+00  0.2560E+03
     -3.510  0.0000E+00  0.2560E+03
     -3.403  0.0000E+00  0.2560E+03
     -3.295  0.0000E+00  0.2560E+03
     -3.188  0.0000E+00  0.2560E+03
     -3.080  0.0000E+00  0.2560E+03
     -2.973  0.0000E+00  0.2560E+03
     -2.866  0.0000E+00  0.2560E+03
     -2.758  0.7754E-08  0.2567E+03
     -2.651  0.3711E-01  0.2591E+03
     -2.543  0.2714E+01  0.2619E+03
     -2.436  0.3622E+01  0.2642E+03
     -2.328  0.0000E+00  0.2667E+03
     -2.221  0.4138E+01  0.2705E+03
     -2.114  0.2759E+01  0.2741E+03
     -2.006  0.1358E+01  0.2773E+03
     -1.899  0.0000E+00  0.2796E+03
     -1.791  0.0000E+00  0.2800E+03
     -1.684  0.0000E+00  0.2802E+03
     -1.577  0.1379E+01  0.2836E+03
     -1.469  0.2506E+00  0.2875E+03
     -1.362  0.6897E+01  0.2955E+03
     -1.254  0.3167E+01  0.3016E+03
     -1.147  0.1603E+01  0.3056E+03
     -1.040  0.6219E+01  0.3097E+03
     -0.932  0.1098E+01  0.3147E+03
     -0.825  0.1671E+02  0.3222E+03
     -0.717  0.9655E+01  0.3296E+03
     -0.610  0.1559E+01  0.3355E+03
     -0.503  0.9785E+01  0.3430E+03
     -0.395  0.4499E+01  0.3522E+03
     -0.288  0.5484E+01  0.3609E+03
     -0.180  0.4034E+01  0.3687E+03
     -0.073  0.4138E+01  0.3777E+03
      0.034  0.8055E+01  0.3848E+03
      0.142  0.5498E+01  0.3901E+03
      0.249  0.0000E+00  0.3931E+03
      0.357  0.0000E+00  0.3950E+03
      0.464  0.4138E-01  0.3964E+03
      0.571  0.1309E-03  0.3981E+03
      0.679  0.0000E+00  0.3993E+03
      0.786  0.1149E-15  0.3993E+03
      0.894  0.0000E+00  0.3998E+03
      1.001  0.0000E+00  0.3999E+03
      1.108  0.0000E+00  0.4000E+03
      1.216  0.0000E+00  0.4000E+03
      1.323  0.0000E+00  0.4000E+03
      1.431  0.0000E+00  0.4000E+03
      1.538  0.0000E+00  0.4000E+03
      1.645  0.0000E+00  0.4000E+03
      1.753  0.0000E+00  0.4000E+03
      1.860  0.0000E+00  0.4000E+03
      1.968  0.0000E+00  0.4000E+03
      2.075  0.0000E+00  0.4000E+03
      2.182  0.0000E+00  0.4000E+03
      2.290  0.0000E+00  0.4000E+03
      2.397  0.0000E+00  0.4000E+03
      2.505  0.0000E+00  0.4000E+03
      2.612  0.0000E+00  0.4000E+03
      2.719  0.0000E+00  0.4000E+03
      2.827  0.0000E+00  0.4000E+03
      2.934  0.0000E+00  0.4000E+03
      3.042  0.0000E+00  0.4000E+03
      3.149  0.0000E+00  0.4000E+03
      3.257  0.0000E+00  0.4000E+03
      3.364  0.0000E+00  0.4007E+03
      3.471  0.0000E+00  0.4010E+03
      3.579  0.0000E+00  0.4029E+03
      3.686  0.0000E+00  0.4036E+03
      3.794  0.1635E+01  0.4057E+03
      3.901  0.0000E+00  0.4067E+03
      4.008  0.0000E+00  0.4079E+03
      4.116  0.0000E+00  0.4084E+03
      4.223  0.0000E+00  0.4093E+03
      4.331  0.0000E+00  0.4107E+03
      4.438  0.1379E+01  0.4126E+03
      4.545  0.0000E+00  0.4145E+03
      4.653  0.1317E+01  0.4166E+03
      4.760  0.2871E-10  0.4197E+03
      4.868  0.2759E+01  0.4227E+03
      4.975  0.0000E+00  0.4239E+03
      5.082  0.4328E+00  0.4239E+03
      5.190  0.0000E+00  0.4240E+03
      5.297  0.0000E+00  0.4240E+03
      5.405  0.0000E+00  0.4240E+03
      5.512  0.0000E+00  0.4240E+03
      5.619  0.1379E+01  0.4242E+03
      5.727  0.0000E+00  0.4253E+03
      5.834  0.2759E+01  0.4281E+03
      5.942  0.0000E+00  0.4327E+03
      6.049  0.6170E+01  0.4361E+03
      6.156  0.0000E+00  0.4388E+03
      6.264  0.4794E-12  0.4409E+03
      6.371  0.2061E+01  0.4435E+03
      6.479  0.0000E+00  0.4464E+03
      6.586  0.2497E+01  0.4497E+03
      6.693  0.6896E+00  0.4542E+03
      6.801  0.5533E+01  0.4582E+03
      6.908  0.5555E+00  0.4622E+03
      7.016  0.2061E+01  0.4663E+03
      7.123  0.2782E+01  0.4710E+03
      7.230  0.3228E+01  0.4754E+03
      7.338  0.4928E+01  0.4800E+03
      7.445  0.1958E+01  0.4835E+03
      7.553  0.4438E+01  0.4868E+03
      7.660  0.3613E+01  0.4905E+03
      7.767  0.1379E+01  0.4944E+03
      7.875  0.1382E+01  0.4974E+03
      7.982  0.6854E+01  0.5011E+03
      8.090  0.2068E+01  0.5039E+03
      8.197  0.1494E-02  0.5059E+03
      8.304  0.6734E+00  0.5087E+03
      8.412  0.1684E+01  0.5105E+03
      8.519  0.0000E+00  0.5116E+03
      8.627  0.0000E+00  0.5120E+03
      8.734  0.0000E+00  0.5120E+03
      8.841  0.0000E+00  0.5120E+03
      8.949  0.0000E+00  0.5120E+03
      9.056  0.0000E+00  0.5120E+03
      9.164  0.0000E+00  0.5120E+03
      9.271  0.0000E+00  0.5120E+03
      9.379  0.0000E+00  0.5120E+03
      9.486  0.0000E+00  0.5120E+03
      9.593  0.0000E+00  0.5120E+03
      9.701  0.0000E+00  0.5120E+03
      9.808  0.0000E+00  0.5120E+03
      9.916  0.0000E+00  0.5120E+03
     10.023  0.0000E+00  0.5120E+03
