 running on 1344 total cores
 distrk:  each k-point on  192 cores,    7 groups
 distr:  one band on   12 cores,   16 groups
 using from now: INCAR     
 vasp.5.4.1 24Jun15 (build Nov 25 2015 16:01:35) complex                        
  
 POSCAR found type information on POSCAR  C  N  H  Pb I 
 POSCAR found :  5 types and      96 ions
 scaLAPACK will be used

 ----------------------------------------------------------------------------- 
|                                                                             |
|           W    W    AA    RRRRR   N    N  II  N    N   GGGG   !!!           |
|           W    W   A  A   R    R  NN   N  II  NN   N  G    G  !!!           |
|           W    W  A    A  R    R  N N  N  II  N N  N  G       !!!           |
|           W WW W  AAAAAA  RRRRR   N  N N  II  N  N N  G  GGG   !            |
|           WW  WW  A    A  R   R   N   NN  II  N   NN  G    G                |
|           W    W  A    A  R    R  N    N  II  N    N   GGGG   !!!           |
|                                                                             |
|      For optimal performance we recommend to set                            |
|        NCORE= 4 - approx SQRT( number of cores)                             |
|      NCORE specifies how many cores store one orbital (NPAR=cpu/NCORE).     |
|      This setting can  greatly improve the performance of VASP for DFT.     |
|      The default, NPAR=number of cores might be grossly inefficient         |
|      on modern multi-core architectures or massively parallel machines.     |
|      Do your own testing !!!!                                               |
|      Unfortunately you need to use the default for GW and RPA calculations. |
|      (for HF NCORE is supported but not extensively tested yet)             |
|                                                                             |
 ----------------------------------------------------------------------------- 


 ----------------------------------------------------------------------------- 
|                                                                             |
|           W    W    AA    RRRRR   N    N  II  N    N   GGGG   !!!           |
|           W    W   A  A   R    R  NN   N  II  NN   N  G    G  !!!           |
|           W    W  A    A  R    R  N N  N  II  N N  N  G       !!!           |
|           W WW W  AAAAAA  RRRRR   N  N N  II  N  N N  G  GGG   !            |
|           WW  WW  A    A  R   R   N   NN  II  N   NN  G    G                |
|           W    W  A    A  R    R  N    N  II  N    N   GGGG   !!!           |
|                                                                             |
|      You have enabled k-point parallelism (KPAR>1).                         |
|      This developmental code was originally  written by Paul Kent at ORNL,  |
|      and carefully double checked in Vienna.                                |
|      GW as well as linear response parallelism added by Martijn Marsman     |
|      and Georg Kresse.                                                      |
|      Carefully verify results versus KPAR=1.                                |
|      Report problems to Paul Kent and Vienna.                               |
|                                                                             |
 ----------------------------------------------------------------------------- 


 ----------------------------------------------------------------------------- 
|                                                                             |
|  ADVICE TO THIS USER RUNNING 'VASP/VAMP'   (HEAR YOUR MASTER'S VOICE ...):  |
|                                                                             |
|      You have a (more or less) 'large supercell' and for larger cells       |
|      it might be more efficient to use real space projection opertators     |
|      So try LREAL= Auto  in the INCAR   file.                               |
|      Mind: At the moment your POTCAR file does not contain real space       |
|       projectors, and has to be modified,  BUT if you                       |
|      want to do an extremely  accurate calculation you might also keep the  |
|      reciprocal projection scheme          (i.e. LREAL=.FALSE.)             |
|                                                                             |
 ----------------------------------------------------------------------------- 

 LDA part: xc-table for Pade appr. of Perdew
 POSCAR, INCAR and KPOINTS ok, starting setup
 WARNING: small aliasing (wrap around) errors must be expected
 FFT: planning ...
 WAVECAR not read
  WARNING: DENMP: can't reach specified precision
  Number of Electrons is NELECT =   399.999999999859     
 entering main loop
       N       E                     dE             d eps       ncg     rms          ort
DAV:   1     0.348691591923E+05    0.34869E+05   -0.11389E+06  3584   0.486E+03
DAV:   2     0.869551333011E+04   -0.26174E+05   -0.25450E+05  3584   0.168E+03
DAV:   3     0.180637990096E+04   -0.68891E+04   -0.67844E+04  3584   0.502E+02
DAV:   4     0.439838461209E+03   -0.13665E+04   -0.13068E+04  3584   0.207E+02
DAV:   5     0.274022033482E+03   -0.16582E+03   -0.16327E+03  3584   0.778E+01
 gam= 0.000 g(H,U,f)=  0.106E+03 0.525E+01 0.620-244 ort(H,U,f) = 0.000E+00 0.000E+00 0.000E+00
SDA:   6    -0.448915622703E+03   -0.72294E+03   -0.16327E+03  3584   0.111E+03 0.000E+00
 gam= 0.000 trial= 0.400  step= 0.336 mean= 0.400
 gam= 0.352 g(H,U,f)=  0.375E+02 0.171E+01 0.000E+00 ort(H,U,f) =-0.202E+01 0.265E+01 0.000E+00
CGA:   7    -0.467535785223E+03   -0.18620E+02   -0.18688E+02  3584   0.392E+02 0.629E+00
 gam= 0.352 trial= 0.397  step= 0.390 mean= 0.397
 gam= 0.209 g(H,U,f)=  0.779E+01 0.403E+00 0.000E+00 ort(H,U,f) =-0.978E+00 0.996E+00 0.000E+00
CGA:   8    -0.475224508240E+03   -0.76887E+01   -0.76891E+01  3584   0.819E+01 0.186E-01
 gam= 0.209 trial= 0.396  step= 0.671 mean= 0.396
 gam= 0.335 g(H,U,f)=  0.260E+01 0.148E+00 0.000E+00 ort(H,U,f) =-0.338E+00 0.335E+00 0.000E+00
CGA:   9    -0.477975470216E+03   -0.27510E+01   -0.27501E+01  3584   0.275E+01-0.386E-02
 gam= 0.335 trial= 0.410  step= 0.632 mean= 0.410
 gam= 0.375 g(H,U,f)=  0.986E+00 0.442E-01 0.301-118 ort(H,U,f) =-0.136E+00 0.129E+00 0.922-118
CGA:  10    -0.478841605201E+03   -0.86613E+00   -0.86678E+00  3584   0.103E+01-0.623E-02
 gam= 0.375 trial= 0.421  step= 0.433 mean= 0.421
 gam= 0.391 g(H,U,f)=  0.384E+00 0.186E-01 0.000E+00 ort(H,U,f) =-0.540E-01 0.530E-01 0.000E+00
CGA:  11    -0.479064197341E+03   -0.22259E+00   -0.22260E+00  3584   0.403E+00-0.108E-02
 gam= 0.391 trial= 0.422  step= 0.559 mean= 0.422
 gam= 0.249 g(H,U,f)=  0.964E-01 0.405E-02 0.000E+00 ort(H,U,f) =-0.176E-01 0.161E-01 0.000E+00
CGA:  12    -0.479176579191E+03   -0.11238E+00   -0.11249E+00  3584   0.100E+00-0.151E-02
 gam= 0.249 trial= 0.429  step= 0.690 mean= 0.429
 gam= 0.305 g(H,U,f)=  0.296E-01 0.954E-03 0.000E+00 ort(H,U,f) =-0.401E-02 0.358E-02 0.000E+00
CGA:  13    -0.479211069964E+03   -0.34491E-01   -0.34551E-01  3584   0.306E-01-0.425E-03
 gam= 0.305 trial= 0.442  step= 0.645 mean= 0.442
 gam= 0.415 g(H,U,f)=  0.124E-01 0.286E-03 0.000E+00 ort(H,U,f) =-0.978E-03 0.956E-03 0.000E+00
CGA:  14    -0.479220899190E+03   -0.98292E-02   -0.98327E-02  3584   0.127E-01-0.220E-04
 gam= 0.415 trial= 0.452  step= 0.449 mean= 0.452
 gam= 0.463 g(H,U,f)=  0.579E-02 0.850E-04 0.000E+00 ort(H,U,f) =-0.490E-03 0.246E-03 0.000E+00
CGA:  15    -0.479223749590E+03   -0.28504E-02   -0.28500E-02  3584   0.588E-02-0.244E-03
 gam= 0.463 trial= 0.452  step= 0.521 mean= 0.452
 gam= 0.307 g(H,U,f)=  0.177E-02 0.293E-04 0.122-257 ort(H,U,f) =-0.273E-04 0.636E-04-0.578-257
CGA:  16    -0.479225253181E+03   -0.15036E-02   -0.15024E-02  3584   0.180E-02 0.362E-04
 gam= 0.307 trial= 0.455  step= 0.746 mean= 0.455
 gam= 0.391 g(H,U,f)=  0.692E-03 0.124E-04 0.000E+00 ort(H,U,f) =-0.598E-04 0.479E-05 0.000E+00
CGA:  17    -0.479225921882E+03   -0.66870E-03   -0.67676E-03  3584   0.704E-03-0.550E-04
 gam= 0.391 trial= 0.470  step= 0.646 mean= 0.470
 gam= 0.389 g(H,U,f)=  0.267E-03 0.645E-05 0.000E+00 ort(H,U,f) = 0.103E-04 0.439E-05 0.000E+00
CGA:  18    -0.479226143749E+03   -0.22187E-03   -0.22059E-03  3584   0.274E-03 0.147E-04
 gam= 0.389 trial= 0.479  step= 0.626 mean= 0.479
 gam= 0.500 g(H,U,f)=  0.133E-03 0.408E-05 0.000E+00 ort(H,U,f) =-0.173E-04 0.467E-05 0.000E+00
CGA:  19    -0.479226230404E+03   -0.86655E-04   -0.87589E-04  3584   0.137E-03-0.126E-04
 gam= 0.500 trial= 0.486  step= 0.406 mean= 0.486
 gam= 0.355 g(H,U,f)=  0.467E-04 0.183E-05 0.000E+00 ort(H,U,f) = 0.125E-04 0.365E-05 0.000E+00
CGA:  20    -0.479226256240E+03   -0.25836E-04   -0.26483E-04  3584   0.486E-04 0.161E-04
 gam= 0.355 trial= 0.482  step= 0.687 mean= 0.482
 gam= 0.470 g(H,U,f)=  0.222E-04 0.630E-06 0.000E+00 ort(H,U,f) =-0.548E-05 0.156E-05 0.000E+00
CGA:  21    -0.479226274485E+03   -0.18245E-04   -0.18648E-04  3584   0.228E-04-0.393E-05
 gam= 0.470 trial= 0.492  step= 0.744 mean= 0.492
 gam= 0.550 g(H,U,f)=  0.124E-04 0.120E-06 0.377-193 ort(H,U,f) =-0.312E-05 0.402E-06-0.328-189
CGA:  22    -0.479226281949E+03   -0.74637E-05   -0.78061E-05  3584   0.126E-04-0.272E-05
 gam= 0.550 trial= 0.505  step= 0.325 mean= 0.505
 gam= 0.378 g(H,U,f)=  0.468E-05 0.573E-07 0.496E-99 ort(H,U,f) = 0.269E-05 0.938E-07-0.314E-98
CGA:  23    -0.479226283496E+03   -0.15467E-05   -0.17966E-05  3584   0.474E-05 0.279E-05
 gam= 0.378 trial= 0.496  step= 0.474 mean= 0.496
 gam= 0.488 g(H,U,f)=  0.228E-05 0.355E-07 0.547E-35 ort(H,U,f) =-0.866E-07 0.265E-07-0.588E-35
CGA:  24    -0.479226284869E+03   -0.13733E-05   -0.13728E-05  3584   0.231E-05-0.601E-07
 gam= 0.488 trial= 0.495  step= 1.531 mean= 0.495
 gam= 0.000 g(H,U,f)=  0.165E-04 0.482E-07 0.000E+00 ort(H,U,f) =-0.538E-05-0.426E-07 0.000E+00
CGA:  25    -0.479226283808E+03    0.10612E-05   -0.17500E-05  3584   0.165E-04-0.542E-05
 gam= 0.000 trial= 0.547  step= 0.243 mean= 0.547
 gam= 0.141 g(H,U,f)=  0.231E-05 0.244E-07 0.000E+00 ort(H,U,f) = 0.340E-05 0.195E-07 0.000E+00
CGA:  26    -0.479226285301E+03   -0.14935E-05   -0.20110E-05  3584   0.233E-05 0.342E-05
 gam= 0.141 trial= 0.531  step= 0.479 mean= 0.531
 gam= 0.399 g(H,U,f)=  0.914E-06 0.176E-07 0.000E+00 ort(H,U,f) = 0.179E-06 0.214E-07 0.000E+00
CGA:  27    -0.479226285972E+03   -0.67021E-06   -0.67533E-06  3584   0.932E-06 0.201E-06
 gam= 0.399 trial= 0.529  step=****** mean= 0.529
 BOPT < 0, no correction made
 gam= 0.441 g(H,U,f)=  0.405E-06 0.629E-08 0.000E+00 ort(H,U,f) =-0.305E-06 0.140E-07 0.000E+00
CGA:  28    -0.479226286514E+03   -0.54266E-06    0.93204E-05  3584   0.411E-06-0.291E-06
 gam= 0.441 trial= 0.529  step= 0.169 mean= 0.529
 gam= 0.660 g(H,U,f)=  0.267E-06 0.466E-08 0.000E+00 ort(H,U,f) = 0.172E-06 0.108E-07 0.000E+00
CGA:  29    -0.479226286505E+03    0.90004E-08   -0.23885E-07  3584   0.271E-06 0.183E-06
 gam= 0.660 trial= 0.511  step= 0.102 mean= 0.511
 gam= 0.000 g(H,U,f)=  0.141E-06 0.377E-08 0.000E+00 ort(H,U,f) = 0.242E-06 0.107E-07 0.000E+00
CGA:  30    -0.479226286473E+03    0.31941E-07   -0.19954E-07  3584   0.144E-06 0.253E-06
 gam= 0.000 trial= 0.490  step= 0.135 mean= 0.490
 gam= 0.000 g(H,U,f)=  0.903E-07 0.342E-08 0.000E+00 ort(H,U,f) = 0.108E-06 0.358E-08 0.000E+00
CGA:  31    -0.479226286463E+03    0.99935E-08   -0.97360E-08  3584   0.937E-07 0.112E-06
 gam= 0.000 trial= 0.473  step= 0.171 mean= 0.473
   1 F= -.47922629E+03 E0= -.47922629E+03  d E =0.000000E+00
Application 22296068 resources: utime ~21870737s, stime ~29237s, Rss ~383792, inblocks ~17981088, outblocks ~10953591
