       N       E                     dE             d eps       ncg     rms          ort
DAV:   1     0.348691591923E+05    0.34869E+05   -0.11389E+06  3584   0.486E+03
DAV:   2     0.869551333011E+04   -0.26174E+05   -0.25450E+05  3584   0.168E+03
DAV:   3     0.180637990096E+04   -0.68891E+04   -0.67844E+04  3584   0.502E+02
DAV:   4     0.439838461209E+03   -0.13665E+04   -0.13068E+04  3584   0.207E+02
DAV:   5     0.274022033482E+03   -0.16582E+03   -0.16327E+03  3584   0.778E+01
SDA:   6    -0.448915622703E+03   -0.72294E+03   -0.16327E+03  3584   0.111E+03 0.000E+00
CGA:   7    -0.467535785223E+03   -0.18620E+02   -0.18688E+02  3584   0.392E+02 0.629E+00
CGA:   8    -0.475224508240E+03   -0.76887E+01   -0.76891E+01  3584   0.819E+01 0.186E-01
CGA:   9    -0.477975470216E+03   -0.27510E+01   -0.27501E+01  3584   0.275E+01-0.386E-02
CGA:  10    -0.478841605201E+03   -0.86613E+00   -0.86678E+00  3584   0.103E+01-0.623E-02
CGA:  11    -0.479064197341E+03   -0.22259E+00   -0.22260E+00  3584   0.403E+00-0.108E-02
CGA:  12    -0.479176579191E+03   -0.11238E+00   -0.11249E+00  3584   0.100E+00-0.151E-02
CGA:  13    -0.479211069964E+03   -0.34491E-01   -0.34551E-01  3584   0.306E-01-0.425E-03
CGA:  14    -0.479220899190E+03   -0.98292E-02   -0.98327E-02  3584   0.127E-01-0.220E-04
CGA:  15    -0.479223749590E+03   -0.28504E-02   -0.28500E-02  3584   0.588E-02-0.244E-03
CGA:  16    -0.479225253181E+03   -0.15036E-02   -0.15024E-02  3584   0.180E-02 0.362E-04
CGA:  17    -0.479225921882E+03   -0.66870E-03   -0.67676E-03  3584   0.704E-03-0.550E-04
CGA:  18    -0.479226143749E+03   -0.22187E-03   -0.22059E-03  3584   0.274E-03 0.147E-04
CGA:  19    -0.479226230404E+03   -0.86655E-04   -0.87589E-04  3584   0.137E-03-0.126E-04
CGA:  20    -0.479226256240E+03   -0.25836E-04   -0.26483E-04  3584   0.486E-04 0.161E-04
CGA:  21    -0.479226274485E+03   -0.18245E-04   -0.18648E-04  3584   0.228E-04-0.393E-05
CGA:  22    -0.479226281949E+03   -0.74637E-05   -0.78061E-05  3584   0.126E-04-0.272E-05
CGA:  23    -0.479226283496E+03   -0.15467E-05   -0.17966E-05  3584   0.474E-05 0.279E-05
CGA:  24    -0.479226284869E+03   -0.13733E-05   -0.13728E-05  3584   0.231E-05-0.601E-07
CGA:  25    -0.479226283808E+03    0.10612E-05   -0.17500E-05  3584   0.165E-04-0.542E-05
CGA:  26    -0.479226285301E+03   -0.14935E-05   -0.20110E-05  3584   0.233E-05 0.342E-05
CGA:  27    -0.479226285972E+03   -0.67021E-06   -0.67533E-06  3584   0.932E-06 0.201E-06
CGA:  28    -0.479226286514E+03   -0.54266E-06    0.93204E-05  3584   0.411E-06-0.291E-06
CGA:  29    -0.479226286505E+03    0.90004E-08   -0.23885E-07  3584   0.271E-06 0.183E-06
CGA:  30    -0.479226286473E+03    0.31941E-07   -0.19954E-07  3584   0.144E-06 0.253E-06
CGA:  31    -0.479226286463E+03    0.99935E-08   -0.97360E-08  3584   0.937E-07 0.112E-06
   1 F= -.47922629E+03 E0= -.47922629E+03  d E =0.000000E+00
