 vasp.5.4.1 24Jun15 (build Nov 25 2015 16:01:35) complex                        
  
 executed on         CrayXC-Intel date 2016.06.26  15:06:15
 running on 1344 total cores
 distrk:  each k-point on  192 cores,    7 groups
 distr:  one band on NCORES_PER_BAND=  12 cores,   16 groups


--------------------------------------------------------------------------------------------------------


 INCAR:
 POTCAR:    PAW_PBE C 08Apr2002                   
 POTCAR:    PAW_PBE N 08Apr2002                   
 POTCAR:    PAW_PBE H 15Jun2001                   
 POTCAR:    PAW_PBE Pb_d 06Sep2000                
 POTCAR:    PAW_PBE I 08Apr2002                   

 ----------------------------------------------------------------------------- 
|                                                                             |
|           W    W    AA    RRRRR   N    N  II  N    N   GGGG   !!!           |
|           W    W   A  A   R    R  NN   N  II  NN   N  G    G  !!!           |
|           W    W  A    A  R    R  N N  N  II  N N  N  G       !!!           |
|           W WW W  AAAAAA  RRRRR   N  N N  II  N  N N  G  GGG   !            |
|           WW  WW  A    A  R   R   N   NN  II  N   NN  G    G                |
|           W    W  A    A  R    R  N    N  II  N    N   GGGG   !!!           |
|                                                                             |
|      For optimal performance we recommend to set                            |
|        NCORE= 4 - approx SQRT( number of cores)                             |
|      NCORE specifies how many cores store one orbital (NPAR=cpu/NCORE).     |
|      This setting can  greatly improve the performance of VASP for DFT.     |
|      The default, NPAR=number of cores might be grossly inefficient         |
|      on modern multi-core architectures or massively parallel machines.     |
|      Do your own testing !!!!                                               |
|      Unfortunately you need to use the default for GW and RPA calculations. |
|      (for HF NCORE is supported but not extensively tested yet)             |
|                                                                             |
 ----------------------------------------------------------------------------- 


 ----------------------------------------------------------------------------- 
|                                                                             |
|           W    W    AA    RRRRR   N    N  II  N    N   GGGG   !!!           |
|           W    W   A  A   R    R  NN   N  II  NN   N  G    G  !!!           |
|           W    W  A    A  R    R  N N  N  II  N N  N  G       !!!           |
|           W WW W  AAAAAA  RRRRR   N  N N  II  N  N N  G  GGG   !            |
|           WW  WW  A    A  R   R   N   NN  II  N   NN  G    G                |
|           W    W  A    A  R    R  N    N  II  N    N   GGGG   !!!           |
|                                                                             |
|      You have enabled k-point parallelism (KPAR>1).                         |
|      This developmental code was originally  written by Paul Kent at ORNL,  |
|      and carefully double checked in Vienna.                                |
|      GW as well as linear response parallelism added by Martijn Marsman     |
|      and Georg Kresse.                                                      |
|      Carefully verify results versus KPAR=1.                                |
|      Report problems to Paul Kent and Vienna.                               |
|                                                                             |
 ----------------------------------------------------------------------------- 

 POTCAR:    PAW_PBE C 08Apr2002                   
   VRHFIN =C: s2p2                                                              
   LEXCH  = PE                                                                  
   EATOM  =   147.1560 eV,   10.8157 Ry                                         
                                                                                
   TITEL  = PAW_PBE C 08Apr2002                                                 
   LULTRA =        F    use ultrasoft PP ?                                      
   IUNSCR =        1    unscreen: 0-lin 1-nonlin 2-no                           
   RPACOR =    1.200    partial core radius                                     
   POMASS =   12.011; ZVAL   =    4.000    mass and valenz                      
   RCORE  =    1.500    outmost cutoff radius                                   
   RWIGS  =    1.630; RWIGS  =    0.863    wigner-seitz radius (au A)           
   ENMAX  =  400.000; ENMIN  =  300.000 eV                                      
   ICORE  =        2    local potential                                         
   LCOR   =        T    correct aug charges                                     
   LPAW   =        T    paw PP                                                  
   EAUG   =  644.873                                                            
   DEXC   =    0.000                                                            
   RMAX   =    1.529    core radius for proj-oper                               
   RAUG   =    1.300    factor for augmentation sphere                          
   RDEP   =    1.501    radius for radial grids                                 
   RDEPT  =    1.300    core radius for aug-charge                              
                                                                                
   Atomic configuration                                                         
    4 entries                                                                   
     n  l   j            E        occ.                                          
     1  0  0.50      -273.3789   2.0000                                         
     2  0  0.50       -13.7508   2.0000                                         
     2  1  0.50        -5.2854   2.0000                                         
     3  2  1.50        -5.4423   0.0000                                         
   Description                                                                  
     l       E           TYP  RCUT    TYP  RCUT                                 
     0    -13.7508458     23  1.200                                             
     0     -8.2022199     23  1.200                                             
     1     -5.2854383     23  1.500                                             
     1     34.0145650     23  1.500                                             
     2     -5.4423304      7  1.500                                             
  local pseudopotential read in
  partial core-charges read in
  partial kinetic energy density read in
  atomic valenz-charges read in
  non local Contribution for L=           0  read in
    real space projection operators read in
  non local Contribution for L=           0  read in
    real space projection operators read in
  non local Contribution for L=           1  read in
    real space projection operators read in
  non local Contribution for L=           1  read in
    real space projection operators read in
    PAW grid and wavefunctions read in
 
   number of l-projection  operators is LMAX  =           4
   number of lm-projection operators is LMMAX =           8
 
 POTCAR:    PAW_PBE N 08Apr2002                   
   VRHFIN =N: s2p3                                                              
   LEXCH  = PE                                                                  
   EATOM  =   264.5486 eV,   19.4438 Ry                                         
                                                                                
   TITEL  = PAW_PBE N 08Apr2002                                                 
   LULTRA =        F    use ultrasoft PP ?                                      
   IUNSCR =        1    unscreen: 0-lin 1-nonlin 2-no                           
   RPACOR =    1.200    partial core radius                                     
   POMASS =   14.001; ZVAL   =    5.000    mass and valenz                      
   RCORE  =    1.500    outmost cutoff radius                                   
   RWIGS  =    1.400; RWIGS  =    0.741    wigner-seitz radius (au A)           
   ENMAX  =  400.000; ENMIN  =  300.000 eV                                      
   ICORE  =        2    local potential                                         
   LCOR   =        T    correct aug charges                                     
   LPAW   =        T    paw PP                                                  
   EAUG   =  627.112                                                            
   DEXC   =    0.000                                                            
   RMAX   =    1.529    core radius for proj-oper                               
   RAUG   =    1.300    factor for augmentation sphere                          
   RDEP   =    1.514    radius for radial grids                                 
   RDEPT  =    1.338    core radius for aug-charge                              
                                                                                
   Atomic configuration                                                         
    4 entries                                                                   
     n  l   j            E        occ.                                          
     1  0  0.50      -384.7179   2.0000                                         
     2  0  0.50       -18.5828   2.0000                                         
     2  1  0.50        -7.0898   3.0000                                         
     3  2  1.50        -6.8029   0.0000                                         
   Description                                                                  
     l       E           TYP  RCUT    TYP  RCUT                                 
     0    -18.5828119     23  1.200                                             
     0    -13.5018863     23  1.200                                             
     1     -7.0897853     23  1.500                                             
     1      9.5240782     23  1.500                                             
     2     -6.8029130      7  1.500                                             
  local pseudopotential read in
  partial core-charges read in
  partial kinetic energy density read in
  atomic valenz-charges read in
  non local Contribution for L=           0  read in
    real space projection operators read in
  non local Contribution for L=           0  read in
    real space projection operators read in
  non local Contribution for L=           1  read in
    real space projection operators read in
  non local Contribution for L=           1  read in
    real space projection operators read in
    PAW grid and wavefunctions read in
 
   number of l-projection  operators is LMAX  =           4
   number of lm-projection operators is LMMAX =           8
 
 POTCAR:    PAW_PBE H 15Jun2001                   
   VRHFIN =H: ultrasoft test                                                    
   LEXCH  = PE                                                                  
   EATOM  =    12.4884 eV,    0.9179 Ry                                         
                                                                                
   TITEL  = PAW_PBE H 15Jun2001                                                 
   LULTRA =        F    use ultrasoft PP ?                                      
   IUNSCR =        0    unscreen: 0-lin 1-nonlin 2-no                           
   RPACOR =    0.000    partial core radius                                     
   POMASS =    1.000; ZVAL   =    1.000    mass and valenz                      
   RCORE  =    1.100    outmost cutoff radius                                   
   RWIGS  =    0.700; RWIGS  =    0.370    wigner-seitz radius (au A)           
   ENMAX  =  250.000; ENMIN  =  200.000 eV                                      
   RCLOC  =    0.701    cutoff for local pot                                    
   LCOR   =        T    correct aug charges                                     
   LPAW   =        T    paw PP                                                  
   EAUG   =  400.000                                                            
   RMAX   =    1.123    core radius for proj-oper                               
   RAUG   =    1.200    factor for augmentation sphere                          
   RDEP   =    1.112    radius for radial grids                                 
   RDEPT  =    0.926    core radius for aug-charge                              
                                                                                
   Atomic configuration                                                         
    2 entries                                                                   
     n  l   j            E        occ.                                          
     1  0  0.50        -6.4927   1.0000                                         
     2  1  0.50        -3.4015   0.0000                                         
   Description                                                                  
     l       E           TYP  RCUT    TYP  RCUT                                 
     0     -6.4927494     23  1.100                                             
     0      6.8029130     23  1.100                                             
     1     -4.0817478     23  1.100                                             
  local pseudopotential read in
  atomic valenz-charges read in
  non local Contribution for L=           0  read in
    real space projection operators read in
  non local Contribution for L=           0  read in
    real space projection operators read in
  non local Contribution for L=           1  read in
    real space projection operators read in
    PAW grid and wavefunctions read in
 
   number of l-projection  operators is LMAX  =           3
   number of lm-projection operators is LMMAX =           5
 
 POTCAR:    PAW_PBE Pb_d 06Sep2000                
   VRHFIN =Pb:                                                                  
   LEXCH  = PE                                                                  
   EATOM  =  1661.6185 eV,  122.1255 Ry                                         
                                                                                
   TITEL  = PAW_PBE Pb_d 06Sep2000                                              
   LULTRA =        F    use ultrasoft PP ?                                      
   IUNSCR =        1    unscreen: 0-lin 1-nonlin 2-no                           
   RPACOR =    2.200    partial core radius                                     
   POMASS =  207.200; ZVAL   =   14.000    mass and valenz                      
   RCORE  =    2.500    outmost cutoff radius                                   
   RWIGS  =    3.260; RWIGS  =    1.725    wigner-seitz radius (au A)           
   ENMAX  =  237.835; ENMIN  =  178.376 eV                                      
   ICORE  =        3    local potential                                         
   LCOR   =        T    correct aug charges                                     
   LPAW   =        T    paw PP                                                  
   EAUG   =  391.914                                                            
   DEXC   =    0.000                                                            
   RMAX   =    2.565    core radius for proj-oper                               
   RAUG   =    1.300    factor for augmentation sphere                          
   RDEP   =    2.643    radius for radial grids                                 
   RDEPT  =    2.092    core radius for aug-charge                              
                                                                                
   Atomic configuration                                                         
   16 entries                                                                   
     n  l   j            E        occ.                                          
     1  0  0.50    -88091.8466   2.0000                                         
     2  0  0.50    -15753.4197   2.0000                                         
     2  1  1.50    -13508.1797   6.0000                                         
     3  0  0.50     -3781.7194   2.0000                                         
     3  1  1.50     -3138.2529   6.0000                                         
     3  2  2.50     -2483.2977  10.0000                                         
     4  0  0.50      -856.2895   2.0000                                         
     4  1  1.50      -645.4942   6.0000                                         
     4  2  2.50      -401.8768  10.0000                                         
     4  3  3.50      -132.9059  14.0000                                         
     5  0  0.50      -144.0950   2.0000                                         
     5  1  1.50       -85.7879   6.0000                                         
     5  2  2.50       -21.1769  10.0000                                         
     6  0  0.50       -12.0372   2.0000                                         
     6  1  1.50        -3.4971   2.0000                                         
     5  3  2.50        -2.7212   0.0000                                         
   Description                                                                  
     l       E           TYP  RCUT    TYP  RCUT                                 
     2    -21.1768523     23  2.500                                             
     2      1.3605826     23  2.500                                             
     0    -12.0371562     23  2.500                                             
     0     13.6058260     23  2.500                                             
     1     -3.4971339     23  2.500                                             
     1     13.6058260     23  2.500                                             
     3     -1.3605826      7  2.500                                             
  local pseudopotential read in
  partial core-charges read in
  partial kinetic energy density read in
  atomic valenz-charges read in
  non local Contribution for L=           2  read in
    real space projection operators read in
  non local Contribution for L=           2  read in
    real space projection operators read in
  non local Contribution for L=           0  read in
    real space projection operators read in
  non local Contribution for L=           0  read in
    real space projection operators read in
  non local Contribution for L=           1  read in
    real space projection operators read in
  non local Contribution for L=           1  read in
    real space projection operators read in
    PAW grid and wavefunctions read in
 
   number of l-projection  operators is LMAX  =           6
   number of lm-projection operators is LMMAX =          18
 
 POTCAR:    PAW_PBE I 08Apr2002                   
   VRHFIN =I : s2p5                                                             
   LEXCH  = PE                                                                  
   EATOM  =   315.8678 eV,   23.2156 Ry                                         
                                                                                
   TITEL  = PAW_PBE I 08Apr2002                                                 
   LULTRA =        F    use ultrasoft PP ?                                      
   IUNSCR =        1    unscreen: 0-lin 1-nonlin 2-no                           
   RPACOR =    2.200    partial core radius                                     
   POMASS =  126.904; ZVAL   =    7.000    mass and valenz                      
   RCORE  =    2.300    outmost cutoff radius                                   
   RWIGS  =    2.810; RWIGS  =    1.487    wigner-seitz radius (au A)           
   ENMAX  =  175.647; ENMIN  =  131.735 eV                                      
   ICORE  =        3    local potential                                         
   LCOR   =        T    correct aug charges                                     
   LPAW   =        T    paw PP                                                  
   EAUG   =  370.139                                                            
   DEXC   =    0.000                                                            
   RMAX   =    2.359    core radius for proj-oper                               
   RAUG   =    1.300    factor for augmentation sphere                          
   RDEP   =    2.392    radius for radial grids                                 
   RDEPT  =    2.170    core radius for aug-charge                              
                                                                                
   Atomic configuration                                                         
   13 entries                                                                   
     n  l   j            E        occ.                                          
     1  0  0.50    -32976.3739   2.0000                                         
     2  0  0.50     -5094.5933   2.0000                                         
     2  1  1.50     -4572.0131   6.0000                                         
     3  0  0.50     -1028.2813   2.0000                                         
     3  1  1.50      -859.0250   6.0000                                         
     3  2  2.50      -605.7620  10.0000                                         
     4  0  0.50      -180.5540   2.0000                                         
     4  1  1.50      -127.5306   6.0000                                         
     4  2  2.50       -50.2720  10.0000                                         
     5  0  0.50       -17.4058   2.0000                                         
     5  1  0.50        -7.0851   5.0000                                         
     5  2  1.50        -7.0750   0.0000                                         
     4  3  2.50        -7.0750   0.0000                                         
   Description                                                                  
     l       E           TYP  RCUT    TYP  RCUT                                 
     0    -17.4058016     23  2.300                                             
     0    -18.7663842     23  2.300                                             
     1     -7.0850686     23  2.300                                             
     1     -4.2150896     23  2.300                                             
     2     -7.0750295     23  2.300                                             
     3     -1.3605826     23  2.300                                             
  local pseudopotential read in
  partial core-charges read in
  partial kinetic energy density read in
  atomic valenz-charges read in
  non local Contribution for L=           0  read in
    real space projection operators read in
  non local Contribution for L=           0  read in
    real space projection operators read in
  non local Contribution for L=           1  read in
    real space projection operators read in
  non local Contribution for L=           1  read in
    real space projection operators read in
  non local Contribution for L=           2  read in
    real space projection operators read in
    PAW grid and wavefunctions read in
 
   number of l-projection  operators is LMAX  =           5
   number of lm-projection operators is LMMAX =          13
 

 ----------------------------------------------------------------------------- 
|                                                                             |
|  ADVICE TO THIS USER RUNNING 'VASP/VAMP'   (HEAR YOUR MASTER'S VOICE ...):  |
|                                                                             |
|      You have a (more or less) 'large supercell' and for larger cells       |
|      it might be more efficient to use real space projection opertators     |
|      So try LREAL= Auto  in the INCAR   file.                               |
|      Mind: At the moment your POTCAR file does not contain real space       |
|       projectors, and has to be modified,  BUT if you                       |
|      want to do an extremely  accurate calculation you might also keep the  |
|      reciprocal projection scheme          (i.e. LREAL=.FALSE.)             |
|                                                                             |
 ----------------------------------------------------------------------------- 

  PAW_PBE C 08Apr2002                   :
 energy of atom  1       EATOM= -147.1560
 kinetic energy error for atom=    0.0032 (will be added to EATOM!!)
  PAW_PBE N 08Apr2002                   :
 energy of atom  2       EATOM= -264.5486
 kinetic energy error for atom=    0.0061 (will be added to EATOM!!)
  PAW_PBE H 15Jun2001                   :
 energy of atom  3       EATOM=  -12.4884
 kinetic energy error for atom=    0.0002 (will be added to EATOM!!)
  PAW_PBE Pb_d 06Sep2000                :
 energy of atom  4       EATOM=-1661.6185
 kinetic energy error for atom=    0.0012 (will be added to EATOM!!)
  PAW_PBE I 08Apr2002                   :
 energy of atom  5       EATOM= -315.8678
 kinetic energy error for atom=    0.0003 (will be added to EATOM!!)
 
 
 POSCAR: C N H Pb I                              
  positions in direct lattice
  No initial velocities read in
 exchange correlation table for  LEXCH =        8
   RHO(1)=    0.500       N(1)  =     2000
   RHO(2)=  100.500       N(2)  =     4000
 


--------------------------------------------------------------------------------------------------------


 ion  position               nearest neighbor table
   1  0.205  0.250  0.217-  33 1.10  25 1.10  17 1.11   9 1.49
   2  0.689  0.250  0.241-  34 1.10  26 1.10  18 1.11  10 1.49
   3  0.189  0.750  0.241-  35 1.10  27 1.10  19 1.11  11 1.49
   4  0.705  0.750  0.217-  36 1.10  28 1.10  20 1.11  12 1.49
   5  0.205  0.250  0.717-  37 1.10  29 1.10  21 1.11  13 1.49
   6  0.689  0.250  0.741-  38 1.10  30 1.10  22 1.11  14 1.49
   7  0.189  0.750  0.741-  39 1.10  31 1.10  23 1.11  15 1.49
   8  0.705  0.750  0.717-  40 1.10  32 1.10  24 1.11  16 1.49
   9  0.307  0.250  0.275-  57 1.05  41 1.05  49 1.05   1 1.49
  10  0.802  0.250  0.273-  42 1.05  50 1.05  58 1.06   2 1.49
  11  0.302  0.750  0.273-  43 1.05  51 1.05  59 1.06   3 1.49
  12  0.807  0.750  0.275-  60 1.05  44 1.05  52 1.05   4 1.49
  13  0.307  0.250  0.775-  61 1.05  45 1.05  53 1.05   5 1.49
  14  0.802  0.250  0.773-  46 1.05  54 1.05  62 1.06   6 1.49
  15  0.302  0.750  0.773-  47 1.05  55 1.05  63 1.06   7 1.49
  16  0.807  0.750  0.775-  64 1.05  48 1.05  56 1.05   8 1.49
  17  0.224  0.250  0.131-   1 1.11
  18  0.686  0.250  0.155-   2 1.11
  19  0.186  0.750  0.155-   3 1.11
  20  0.724  0.750  0.131-   4 1.11
  21  0.224  0.250  0.631-   5 1.11
  22  0.686  0.250  0.655-   6 1.11
  23  0.186  0.750  0.655-   7 1.11
  24  0.724  0.750  0.631-   8 1.11
  25  0.159  0.322  0.238-   1 1.10
  26  0.649  0.322  0.273-   2 1.10
  27  0.149  0.822  0.273-   3 1.10
  28  0.659  0.822  0.238-   4 1.10
  29  0.159  0.322  0.738-   5 1.10
  30  0.649  0.322  0.773-   6 1.10
  31  0.149  0.822  0.773-   7 1.10
  32  0.659  0.822  0.738-   8 1.10
  33  0.159  0.177  0.238-   1 1.10
  34  0.650  0.177  0.273-   2 1.10
  35  0.150  0.677  0.273-   3 1.10
  36  0.659  0.677  0.238-   4 1.10
  37  0.159  0.177  0.738-   5 1.10
  38  0.650  0.177  0.773-   6 1.10
  39  0.150  0.677  0.773-   7 1.10
  40  0.659  0.677  0.738-   8 1.10
  41  0.353  0.318  0.257-   9 1.05
  42  0.843  0.318  0.245-  10 1.05
  43  0.343  0.818  0.245-  11 1.05
  44  0.853  0.818  0.257-  12 1.05
  45  0.353  0.318  0.757-  13 1.05
  46  0.843  0.318  0.745-  14 1.05
  47  0.343  0.818  0.745-  15 1.05
  48  0.853  0.818  0.757-  16 1.05
  49  0.353  0.182  0.257-   9 1.05
  50  0.844  0.182  0.245-  10 1.05
  51  0.344  0.682  0.245-  11 1.05
  52  0.853  0.682  0.257-  12 1.05
  53  0.353  0.182  0.757-  13 1.05
  54  0.844  0.182  0.745-  14 1.05
  55  0.344  0.682  0.745-  15 1.05
  56  0.853  0.682  0.757-  16 1.05
  57  0.294  0.250  0.356-   9 1.05
  58  0.812  0.250  0.355-  10 1.06
  59  0.312  0.750  0.355-  11 1.06
  60  0.794  0.750  0.356-  12 1.05
  61  0.294  0.250  0.856-  13 1.05
  62  0.812  0.250  0.855-  14 1.06
  63  0.312  0.750  0.855-  15 1.06
  64  0.794  0.750  0.856-  16 1.05
  65  0.472  0.501  0.489-  90 3.10  85 3.14  87 3.17  77 3.17  73 3.22  89 3.27
  66  0.972  0.499  0.489-  89 3.10  88 3.14  78 3.17  86 3.17  74 3.22  90 3.27
  67  0.472  0.999  0.489-  92 3.10  85 3.14  79 3.17  87 3.17  75 3.22  91 3.27
  68  0.972  0.001  0.489-  91 3.10  88 3.14  86 3.17  80 3.17  76 3.22  92 3.27
  69  0.472  0.501  0.989-  94 3.10  81 3.14  83 3.17  73 3.17  77 3.22  93 3.27
  70  0.972  0.499  0.989-  93 3.10  84 3.14  74 3.17  82 3.17  78 3.22  94 3.27
  71  0.472  0.999  0.989-  96 3.10  81 3.14  75 3.17  83 3.17  79 3.22  95 3.27
  72  0.972  0.001  0.989-  95 3.10  84 3.14  82 3.17  76 3.17  80 3.22  96 3.27
  73  0.455  0.501  0.238-  69 3.17  65 3.22
  74  0.955  0.499  0.238-  70 3.17  66 3.22
  75  0.455  0.999  0.238-  71 3.17  67 3.22
  76  0.955  0.001  0.238-  72 3.17  68 3.22
  77  0.455  0.501  0.738-  65 3.17  69 3.22
  78  0.955  0.499  0.738-  66 3.17  70 3.22
  79  0.455  0.999  0.738-  67 3.17  71 3.22
  80  0.955  0.001  0.738-  68 3.17  72 3.22
  81  0.475  0.250  0.007-  71 3.14  69 3.14
  82  0.925  0.250  0.017-  72 3.17  70 3.17
  83  0.425  0.750  0.017-  69 3.17  71 3.17
  84  0.975  0.750  0.007-  70 3.14  72 3.14
  85  0.475  0.250  0.507-  67 3.14  65 3.14
  86  0.925  0.250  0.517-  68 3.17  66 3.17
  87  0.425  0.750  0.517-  65 3.17  67 3.17
  88  0.975  0.750  0.507-  66 3.14  68 3.14
  89  0.216  0.470  0.461-  66 3.10  65 3.27
  90  0.716  0.530  0.461-  65 3.10  66 3.27
  91  0.216  0.030  0.461-  68 3.10  67 3.27
  92  0.716  0.970  0.461-  67 3.10  68 3.27
  93  0.216  0.470  0.961-  70 3.10  69 3.27
  94  0.716  0.530  0.961-  69 3.10  70 3.27
  95  0.216  0.030  0.961-  72 3.10  71 3.27
  96  0.716  0.970  0.961-  71 3.10  72 3.27
 
  LATTYP: Found a triclinic cell.
 ALAT       =    17.8238589327
 B/A-ratio  =     0.6989248630
 C/A-ratio  =     1.0156975818
 COS(alpha) =     0.0001355172
 COS(beta)  =     0.5146378593
 COS(gamma) =     0.6988877578
  
  Lattice vectors:
  
 A1 = (  -0.1406063366, -12.4576271275, -12.7466742118)
 A2 = (  -0.0011956322, -12.4575380825,   0.0007464135)
 A3 = ( -12.7162481321,  -0.0020049566, -12.8856194186)


Analysis of symmetry for initial positions (statically):
=====================================================================
 Subroutine PRICEL returns following result:
 
  LATTYP: Found a triclinic cell.
 ALAT       =     8.8502626515
 B/A-ratio  =     1.4075896561
 C/A-ratio  =     0.7202149489
 COS(alpha) =     0.0000518785
 COS(beta)  =     0.0156138721
 COS(gamma) =     0.7036188608
  
  Lattice vectors:
  
 A1 = (  -6.2878208978,   6.2278110854,  -0.0694726034)
 A2 = (   0.0011956322,  12.4575380825,  -0.0007464135)
 A3 = (  -0.0697053522,  -0.0000445225,  -6.3737103126)
 
   4 primitive cells build up your supercell.
 

 Routine SETGRP: Setting up the symmetry group for a 
 triclinic supercell.


 Subroutine GETGRP returns: Found  1 space group operations
 (whereof  1 operations were pure point group operations)
 out of a pool of  2 trial point group operations.


The static configuration has the point symmetry C_1 .


Analysis of symmetry for dynamics (positions and initial velocities):
=====================================================================
 Subroutine PRICEL returns following result:
 
  LATTYP: Found a triclinic cell.
 ALAT       =     8.8502626515
 B/A-ratio  =     1.4075896561
 C/A-ratio  =     0.7202149489
 COS(alpha) =     0.0000518785
 COS(beta)  =     0.0156138721
 COS(gamma) =     0.7036188608
  
  Lattice vectors:
  
 A1 = (  -6.2878208978,   6.2278110854,  -0.0694726034)
 A2 = (   0.0011956322,  12.4575380825,  -0.0007464135)
 A3 = (  -0.0697053522,  -0.0000445225,  -6.3737103126)
 
   4 primitive cells build up your supercell.
 

 Routine SETGRP: Setting up the symmetry group for a 
 triclinic supercell.


 Subroutine GETGRP returns: Found  1 space group operations
 (whereof  1 operations were pure point group operations)
 out of a pool of  2 trial point group operations.


The dynamic configuration has the point symmetry C_1 .


 Subroutine INISYM returns: Found  1 space group operations
 (whereof  1 operations are pure point group operations),
 and found     4 'primitive' translations

 
 
 KPOINTS: Automatic 3x3x3                         

Automatic generation of k-mesh.
Space group operators:
 irot       det(A)        alpha          n_x          n_y          n_z        tau_x        tau_y        tau_z
    1     1.000000     0.000000     1.000000     0.000000     0.000000     0.000000     0.000000     0.000000
 
 Subroutine IBZKPT returns following result:
 ===========================================
 
 Found     14 irreducible k-points:
 
 Following reciprocal coordinates:
            Coordinates               Weight
  0.000000  0.000000  0.000000      1.000000
  0.333333 -0.000000 -0.000000      2.000000
  0.000000  0.333333 -0.000000      2.000000
  0.333333  0.333333  0.000000      2.000000
 -0.333333  0.333333  0.000000      2.000000
  0.000000  0.000000  0.333333      2.000000
  0.333333  0.000000  0.333333      2.000000
 -0.333333  0.000000  0.333333      2.000000
  0.000000  0.333333  0.333333      2.000000
  0.333333  0.333333  0.333333      2.000000
 -0.333333  0.333333  0.333333      2.000000
  0.000000 -0.333333  0.333333      2.000000
  0.333333 -0.333333  0.333333      2.000000
 -0.333333 -0.333333  0.333333      2.000000
 
 Following cartesian coordinates:
            Coordinates               Weight
  0.000000  0.000000  0.000000      1.000000
  0.026507 -0.000003 -0.000290      2.000000
 -0.000004  0.026758 -0.000000      2.000000
  0.026503  0.026755 -0.000290      2.000000
 -0.026511  0.026760  0.000290      2.000000
 -0.000287  0.000002  0.026152      2.000000
  0.026220 -0.000001  0.025862      2.000000
 -0.026794  0.000004  0.026442      2.000000
 -0.000291  0.026759  0.026152      2.000000
  0.026215  0.026757  0.025862      2.000000
 -0.026798  0.026762  0.026442      2.000000
 -0.000283 -0.026756  0.026152      2.000000
  0.026224 -0.026759  0.025862      2.000000
 -0.026790 -0.026753  0.026442      2.000000
 
 
 Subroutine IBZKPT_HF returns following result:
 ==============================================
 
 Found     27 k-points in 1st BZ
 the following     27 k-points will be used (e.g. in the exchange kernel)
 Following reciprocal coordinates:   # in IRBZ
  0.000000  0.000000  0.000000    0.03703704   1 t-inv F
  0.333333 -0.000000 -0.000000    0.03703704   2 t-inv F
  0.000000  0.333333 -0.000000    0.03703704   3 t-inv F
  0.333333  0.333333  0.000000    0.03703704   4 t-inv F
 -0.333333  0.333333  0.000000    0.03703704   5 t-inv F
  0.000000  0.000000  0.333333    0.03703704   6 t-inv F
  0.333333  0.000000  0.333333    0.03703704   7 t-inv F
 -0.333333  0.000000  0.333333    0.03703704   8 t-inv F
  0.000000  0.333333  0.333333    0.03703704   9 t-inv F
  0.333333  0.333333  0.333333    0.03703704  10 t-inv F
 -0.333333  0.333333  0.333333    0.03703704  11 t-inv F
  0.000000 -0.333333  0.333333    0.03703704  12 t-inv F
  0.333333 -0.333333  0.333333    0.03703704  13 t-inv F
 -0.333333 -0.333333  0.333333    0.03703704  14 t-inv F
 -0.333333  0.000000  0.000000    0.03703704   2 t-inv T
 -0.000000 -0.333333  0.000000    0.03703704   3 t-inv T
 -0.333333 -0.333333 -0.000000    0.03703704   4 t-inv T
  0.333333 -0.333333 -0.000000    0.03703704   5 t-inv T
 -0.000000  0.000000 -0.333333    0.03703704   6 t-inv T
 -0.333333 -0.000000 -0.333333    0.03703704   7 t-inv T
  0.333333 -0.000000 -0.333333    0.03703704   8 t-inv T
 -0.000000 -0.333333 -0.333333    0.03703704   9 t-inv T
 -0.333333 -0.333333 -0.333333    0.03703704  10 t-inv T
  0.333333 -0.333333 -0.333333    0.03703704  11 t-inv T
 -0.000000  0.333333 -0.333333    0.03703704  12 t-inv T
 -0.333333  0.333333 -0.333333    0.03703704  13 t-inv T
  0.333333  0.333333 -0.333333    0.03703704  14 t-inv T


--------------------------------------------------------------------------------------------------------




 Dimension of arrays:
   k-points           NKPTS =     14   k-points in BZ     NKDIM =     27   number of bands    NBANDS=    256
   number of dos      NEDOS =    301   number of ions     NIONS =     96
   non local maximal  LDIM  =      6   non local SUM 2l+1 LMDIM =     18
   total plane-waves  NPLWV = ******
   max r-space proj   IRMAX =      1   max aug-charges    IRDMAX= 314103
   dimension x,y,z NGX =   112 NGY =  108 NGZ =  112
   dimension x,y,z NGXF=   224 NGYF=  216 NGZF=  224
   support grid    NGXF=   448 NGYF=  432 NGZF=  448
   ions per type =               8   8  48   8  24
 NGX,Y,Z   is equivalent  to a cutoff of  14.80, 14.41, 14.61 a.u.
 NGXF,Y,Z  is equivalent  to a cutoff of  29.61, 28.83, 29.21 a.u.


 I would recommend the setting:
   dimension x,y,z NGX =   109 NGY =  107 NGZ =  110
 SYSTEM =  MAPbI3-Cubic                            
 POSCAR =  C N H Pb I                              

 Startparameter for this run:
   NWRITE =      2    write-flag & timer
   PREC   = accura    normal or accurate (medium, high low for compatibility)
   ISTART =      0    job   : 0-new  1-cont  2-samecut
   ICHARG =      2    charge: 1-file 2-atom 10-const
   ISPIN  =      1    spin polarized calculation?
   LNONCOLLINEAR =      F non collinear calculations
   LSORBIT =      F    spin-orbit coupling
   INIWAV =      1    electr: 0-lowe 1-rand  2-diag
   LASPH  =      F    aspherical Exc in radial PAW
   METAGGA=      F    non-selfconsistent MetaGGA calc.

 Electronic Relaxation 1
   ENCUT  =  700.0 eV  51.45 Ry    7.17 a.u.  27.13 26.87 27.50*2*pi/ulx,y,z
   ENINI  =  700.0     initial cutoff
   ENAUG  =  644.9 eV  augmentation charge cutoff
   NELM   =     60;   NELMIN=  2; NELMDL= -5     # of ELM steps 
   EDIFF  = 0.1E-07   stopping-criterion for ELM
   LREAL  =      F    real-space projection
   NLSPLINE    = F    spline interpolate recip. space projectors
   LCOMPAT=      F    compatible to vasp.4.4
   GGA_COMPAT  = T    GGA compatible to vasp.4.4-vasp.4.6
   LMAXPAW     = -100 max onsite density
   LMAXMIX     =    2 max onsite mixed and CHGCAR
   VOSKOWN=      0    Vosko Wilk Nusair interpolation
   ROPT   =    0.00000   0.00000   0.00000   0.00000
   ROPT   =    0.00000
 Ionic relaxation
   EDIFFG = 0.1E-06   stopping-criterion for IOM
   NSW    =      0    number of steps for IOM
   NBLOCK =      1;   KBLOCK =      1    inner block; outer block 
   IBRION =     -1    ionic relax: 0-MD 1-quasi-New 2-CG
   NFREE  =      0    steps in history (QN), initial steepest desc. (CG)
   ISIF   =      2    stress and relaxation
   IWAVPR =     10    prediction:  0-non 1-charg 2-wave 3-comb
   ISYM   =      3    0-nonsym 1-usesym 2-fastsym
   LCORR  =      T    Harris-Foulkes like correction to forces

   POTIM  = 0.5000    time-step for ionic-motion
   TEIN   =    0.0    initial temperature
   TEBEG  =    0.0;   TEEND  =   0.0 temperature during run
   SMASS  =  -3.00    Nose mass-parameter (am)
   estimated Nose-frequenzy (Omega)   =  0.10E-29 period in steps =****** mass=  -0.362E-26a.u.
   SCALEE = 1.0000    scale energy and forces
   NPACO  =    256;   APACO  = 16.0  distance and # of slots for P.C.
   PSTRESS=    0.0 pullay stress

  Mass of Ions in am
   POMASS =  12.01 14.00  1.00207.20126.90
  Ionic Valenz
   ZVAL   =   4.00  5.00  1.00 14.00  7.00
  Atomic Wigner-Seitz radii
   RWIGS  =  -1.00 -1.00 -1.00 -1.00 -1.00
  virtual crystal weights 
   VCA    =   1.00  1.00  1.00  1.00  1.00
   NELECT =     400.0000    total number of electrons
   NUPDOWN=      -1.0000    fix difference up-down

 DOS related values:
   EMIN   =  10.00;   EMAX   =-10.00  energy-range for DOS
   EFERMI =   0.00
   ISMEAR =     0;   SIGMA  =   0.00  broadening in eV -4-tet -1-fermi 0-gaus

 Electronic relaxation 2 (details)
   IALGO  =     58    algorithm
   LDIAG  =      T    sub-space diagonalisation (order eigenvalues)
   LSUBROT=      F    optimize rotation matrix (better conditioning)
   TURBO    =      0    0=normal 1=particle mesh
   IRESTART =      0    0=no restart 2=restart with 2 vectors
   NREBOOT  =      0    no. of reboots
   NMIN     =      0    reboot dimension
   EREF     =   0.00    reference energy to select bands
   IMIX   =      4    mixing-type and parameters
     AMIX     =   0.40;   BMIX     =  1.00
     AMIX_MAG =   1.60;   BMIX_MAG =  1.00
     AMIN     =   0.10
     WC   =   100.;   INIMIX=   1;  MIXPRE=   1;  MAXMIX= -45

 Intra band minimization:
   WEIMIN = 0.0000     energy-eigenvalue tresh-hold
   EBREAK =  0.98E-11  absolut break condition
   DEPER  =   0.30     relativ break condition  

   TIME   =   0.40     timestep for ELM

  volume/ion in A,a.u.               =      20.80       140.38
  Fermi-wavevector in a.u.,A,eV,Ry     =   0.957863  1.810099 12.483376  0.917502
  Thomas-Fermi vector in A             =   2.086919
 
 Write flags
   LWAVE  =      F    write WAVECAR
   LCHARG =      F    write CHGCAR
   LVTOT  =      F    write LOCPOT, total local potential
   LVHAR  =      F    write LOCPOT, Hartree potential only
   LELF   =      F    write electronic localiz. function (ELF)
   LORBIT =      0    0 simple, 1 ext, 2 COOP (PROOUT)


 Dipole corrections
   LMONO  =      F    monopole corrections only (constant potential shift)
   LDIPOL =      F    correct potential (dipole corrections)
   IDIPOL =      0    1-x, 2-y, 3-z, 4-all directions 
   EPSILON=  1.0000000 bulk dielectric constant

 Core level calculations are selected ICORELEVEL =  1
 Exchange correlation treatment:
   GGA     =    PE    GGA type
   LEXCH   =     8    internal setting for exchange type
   VOSKOWN=      0    Vosko Wilk Nusair interpolation
   EXXOEP  =     0    0=HF, 1=EXX-LHF (local Hartree Fock) 2=EXX OEP
   LHFCALC =     T    Hartree Fock is set to
   LSYMGRAD=     F    symmetrize gradient (conserves proper symmetry)
   PRECFOCK=fast      Normal, Fast or Accurate (Low or Medium for compatibility)
   LRHFCALC=     F    long range Hartree Fock
   LRSCOR  =     F    long range correlation only (use DFT for short range part)
   LTHOMAS =     F    Thomas Fermi screening in HF
   LMODELHF=     F    short range full HF, long range fraction AEXX
   ENCUT4O =  -1.0   cutoff for four orbital integrals eV
   LMAXFOCK=     4    L truncation for augmentation on plane wave grid
   LMAXFOCKAE=  -1    L truncation for all-electron charge restoration on plane wave grid
   NMAXFOCKAE=   1    number of basis functions for all-electron charge restoration
   LFOCKAEDFT=     F  apply the AE augmentation even for DFT
   NKREDX  =     1    reduce k-point grid by
   NKREDY  =     1    reduce k-point grid by
   NKREDZ  =     1    reduce k-point grid by
   SHIFTRED=     F    shift reduced grid of Gamma
   HFKIDENT=     F    idential grid for each k-point
   ODDONLY =     F    use only odd q-grid points
   EVENONLY=     F    use only even q-grid points
   HFALPHA =   -1.0000 decay constant for conv. correction
   MCALPHA =    0.0000 extent of test-charge in conv. correction in multipole expansion
   AEXX    =    0.2500 exact exchange contribution
   HFSCREEN=    0.2070 screening length (either q_TF or 0.3 A-1)
   HFSCREENC=   0.2070 screening length for correlation (either q_TF or 0.3 A-1)
   HFRCUT  =    0.0000 spherical cutoff for potential kernel
   ALDAX   =    0.7500 LDA exchange part
   AGGAX   =    0.7500 GGA exchange part
   ALDAC   =    1.0000 LDA correlation
   AGGAC   =    1.0000 GGA correlation
   NBANDSGWLOW=     1    first orbital included in HF term
   ENCUTFOCK=  -1.0 apply spherical cutoff to Coloumb kernel
 Linear response parameters
   LEPSILON=     F    determine dielectric tensor
   LRPA    =     F    only Hartree local field effects (RPA)
   LNABLA  =     F    use nabla operator in PAW spheres
   LVEL    =     F    velocity operator in full k-point grid
   LINTERFAST=   F  fast interpolation
   KINTER  =     0    interpolate to denser k-point grid
   CSHIFT  =0.1000    complex shift for real part using Kramers Kronig
   OMEGAMAX=  -1.0    maximum frequency
   DEG_THRESHOLD= 0.2000000E-02 threshold for treating states as degnerate
   RTIME   =    0.100 relaxation time in fs

 Orbital magnetization related:
   ORBITALMAG=     F  switch on orbital magnetization
   LCHIMAG   =     F  perturbation theory with respect to B field
   DQ        =  0.001000  dq finite difference perturbation B field



--------------------------------------------------------------------------------------------------------


 Static calculation
 charge density and potential will be updated during run
 non-spin polarized calculation
 Conjugate gradient for all bands (Freysoldt, et al. PRB 79, 241103 (2009))
 preconditioned conjugated gradient                                        
 perform sub-space diagonalisation
    before iterative eigenvector-optimisation
 modified Broyden-mixing scheme, WC =      100.0
 initial mixing is a Kerker type mixing with AMIX =  0.4000 and BMIX =      1.0000
 Hartree-type preconditioning will be used
 using additional bands           56
 reciprocal scheme for non local part
 use partial core corrections
 no Harris-corrections to forces 
 use gradient corrections 
 use of overlap-Matrix (Vanderbilt PP)
 Gauss-broadening in eV      SIGMA  =   0.00


--------------------------------------------------------------------------------------------------------


  energy-cutoff  :      700.00
  volume of cell :     1996.98
      direct lattice vectors                 reciprocal lattice vectors
    12.576837428  0.001915912  0.138198793     0.079520802 -0.000007684 -0.000869670
     0.001195632 12.457538083 -0.000746413    -0.000012224  0.080272684 -0.000000427
     0.139410704  0.000089045 12.747420625    -0.000862111  0.000004784  0.078456671

  length of vectors
    12.577596840 12.457538162 12.748182927     0.079525558  0.080272685  0.078461408


 
 k-points in units of 2pi/SCALE and weight: Automatic 3x3x3                         
   0.00000000  0.00000000  0.00000000       0.037
   0.02650693 -0.00000256 -0.00028989       0.074
  -0.00000407  0.02675756 -0.00000014       0.074
   0.02650286  0.02675500 -0.00029003       0.074
  -0.02651101  0.02676012  0.00028975       0.074
  -0.00028737  0.00000159  0.02615222       0.074
   0.02621956 -0.00000097  0.02586233       0.074
  -0.02679430  0.00000416  0.02644211       0.074
  -0.00029144  0.02675916  0.02615208       0.074
   0.02621549  0.02675659  0.02586219       0.074
  -0.02679838  0.02676172  0.02644197       0.074
  -0.00028330 -0.02675597  0.02615237       0.074
   0.02622364 -0.02675853  0.02586248       0.074
  -0.02679023 -0.02675341  0.02644226       0.074
 
 k-points in reciprocal lattice and weights: Automatic 3x3x3                         
   0.00000000  0.00000000  0.00000000       0.037
   0.33333333 -0.00000000 -0.00000000       0.074
   0.00000000  0.33333333 -0.00000000       0.074
   0.33333333  0.33333333  0.00000000       0.074
  -0.33333333  0.33333333  0.00000000       0.074
   0.00000000  0.00000000  0.33333333       0.074
   0.33333333  0.00000000  0.33333333       0.074
  -0.33333333  0.00000000  0.33333333       0.074
   0.00000000  0.33333333  0.33333333       0.074
   0.33333333  0.33333333  0.33333333       0.074
  -0.33333333  0.33333333  0.33333333       0.074
   0.00000000 -0.33333333  0.33333333       0.074
   0.33333333 -0.33333333  0.33333333       0.074
  -0.33333333 -0.33333333  0.33333333       0.074
 
 position of ions in fractional coordinates (direct lattice) 
   0.20494730  0.24994144  0.21652848
   0.68904096  0.24987511  0.24130223
   0.18904096  0.74987511  0.24130223
   0.70494730  0.74994144  0.21652848
   0.20494730  0.24994144  0.71652848
   0.68904096  0.24987511  0.74130223
   0.18904096  0.74987511  0.74130223
   0.70494730  0.74994144  0.71652848
   0.30672586  0.25002880  0.27458494
   0.80234858  0.24997848  0.27318365
   0.30234858  0.74997848  0.27318365
   0.80672586  0.75002880  0.27458494
   0.30672586  0.25002880  0.77458494
   0.80234858  0.24997848  0.77318365
   0.30234858  0.74997848  0.77318365
   0.80672586  0.75002880  0.77458494
   0.22378896  0.24982004  0.13125429
   0.68636138  0.24982215  0.15452296
   0.18636138  0.74982215  0.15452296
   0.72378896  0.74982004  0.13125429
   0.22378896  0.24982004  0.63125429
   0.68636138  0.24982215  0.65452296
   0.18636138  0.74982215  0.65452296
   0.72378896  0.74982004  0.63125429
   0.15930881  0.32247591  0.23815995
   0.64936680  0.32222846  0.27287069
   0.14936680  0.82222846  0.27287069
   0.65930881  0.82247591  0.23815995
   0.15930881  0.32247591  0.73815995
   0.64936680  0.32222846  0.77287069
   0.14936680  0.82222846  0.77287069
   0.65930881  0.82247591  0.73815995
   0.15936335  0.17745708  0.23835398
   0.64952232  0.17749507  0.27294744
   0.14952232  0.67749507  0.27294744
   0.65936335  0.67745708  0.23835398
   0.15936335  0.17745708  0.73835398
   0.64952232  0.17749507  0.77294744
   0.14952232  0.67749507  0.77294744
   0.65936335  0.67745708  0.73835398
   0.35284146  0.31813953  0.25666989
   0.84342770  0.31760904  0.24484309
   0.34342770  0.81760904  0.24484309
   0.85284146  0.81813953  0.25666989
   0.35284146  0.31813953  0.75666989
   0.84342770  0.31760904  0.74484309
   0.34342770  0.81760904  0.74484309
   0.85284146  0.81813953  0.75666989
   0.35286314  0.18185105  0.25686546
   0.84354746  0.18235873  0.24491634
   0.34354746  0.68235873  0.24491634
   0.85286314  0.68185105  0.25686546
   0.35286314  0.18185105  0.75686546
   0.84354746  0.18235873  0.74491634
   0.34354746  0.68235873  0.74491634
   0.85286314  0.68185105  0.75686546
   0.29423872  0.25016227  0.35596358
   0.81210142  0.25002477  0.35525491
   0.31210142  0.75002477  0.35525491
   0.79423872  0.75016227  0.35596358
   0.29423872  0.25016227  0.85596358
   0.81210142  0.25002477  0.85525491
   0.31210142  0.75002477  0.85525491
   0.79423872  0.75016227  0.85596358
   0.47244875  0.50128669  0.48880972
   0.97243480  0.49869290  0.48881318
   0.47243480  0.99869290  0.48881318
   0.97244875  0.00128669  0.48880972
   0.47244875  0.50128669  0.98880972
   0.97243480  0.49869290  0.98881318
   0.47243480  0.99869290  0.98881318
   0.97244875  0.00128669  0.98880972
   0.45476300  0.50068160  0.23756863
   0.95472435  0.49930050  0.23757685
   0.45472435  0.99930050  0.23757685
   0.95476300  0.00068160  0.23756863
   0.45476300  0.50068160  0.73756863
   0.95472435  0.49930050  0.73757685
   0.45472435  0.99930050  0.73757685
   0.95476300  0.00068160  0.73756863
   0.47461784  0.24997408  0.00713745
   0.92465304  0.24998395  0.01652699
   0.42465304  0.74998395  0.01652699
   0.97461784  0.74997408  0.00713745
   0.47461784  0.24997408  0.50713745
   0.92465304  0.24998395  0.51652699
   0.42465304  0.74998395  0.51652699
   0.97461784  0.74997408  0.50713745
   0.21617747  0.47017927  0.46123970
   0.71616541  0.52981560  0.46123971
   0.21616541  0.02981560  0.46123971
   0.71617747  0.97017927  0.46123970
   0.21617747  0.47017927  0.96123970
   0.71616541  0.52981560  0.96123971
   0.21616541  0.02981560  0.96123971
   0.71617747  0.97017927  0.96123970
 
 position of ions in cartesian coordinates  (Angst):
   2.60807414  3.11406693  2.78831655
   8.69989503  3.11417035  3.17101910
   2.41207413  9.34198143  3.10154649
   8.89709067  9.34379393  2.85704274
   2.67777949  3.11411145  9.16202687
   8.76960038  3.11421487  9.54472941
   2.48177948  9.34202596  9.47525681
   8.96679602  9.34383845  9.23075305
   3.89622027  3.11535542  3.54245224
  10.12939126  3.11567800  3.59308396
   3.84157036  9.34348908  3.52361136
  10.18523680  9.34508241  3.61117843
   3.96592563  3.11539994  9.91616255
  10.19909661  3.11572252  9.96679427
   3.91127571  9.34353360  9.89732167
  10.25494216  9.34512694  9.98488874
   2.83315427  3.11258313  1.70389457
   8.65409631  3.11349772  2.06443701
   2.36627542  9.34130881  1.99496440
   9.12217080  9.34231013  1.77262076
   2.90285963  3.11262766  8.07760488
   8.72380167  3.11354225  8.43814732
   2.43598077  9.34135333  8.36867472
   9.19187616  9.34235465  8.14633107
   2.03718861  4.01758236  3.05770062
   8.20540708  4.01544177  3.56789866
   1.91758619 10.24325286  3.49842605
   8.32620514 10.24730936  3.12642681
   2.10689396  4.01762689  9.43141094
   8.27511244  4.01548630  9.94160897
   1.98729154 10.24329738  9.87213637
   8.39591049 10.24735388  9.50013713
   2.03772817  2.21100486  3.06028976
   8.20720065  2.21242031  3.56900650
   1.91937975  8.44023140  3.49953390
   8.32674470  8.44073186  3.12901595
   2.10743352  2.21104938  9.43400008
   8.27690600  2.21246483  9.94271682
   1.98908510  8.44027592  9.87324421
   8.39645005  8.44077638  9.50272627
   4.47379255  3.96393412  3.32040384
  10.64216653  3.95826445  3.23744151
   4.35434563 10.18607554  3.16796891
  10.76280908 10.19366112  3.38913003
   4.54349790  3.96397864  9.69411415
  10.71187188  3.95830898  9.61115183
   4.42405098 10.18612006  9.54167922
  10.83251443 10.19370564  9.76284034
   4.47392961  2.26611530  3.32300159
  10.64352122  2.27337874  3.23849272
   4.35570033  8.50118982  3.16902012
  10.76294614  8.49584230  3.39172778
   4.54363496  2.26615982  9.69671190
  10.71322658  2.27342326  9.61220303
   4.42540568  8.50123435  9.54273043
  10.83265149  8.49588682  9.76543809
   3.75051682  3.11700148  4.57809418
  10.26349285  3.11628064  4.64062859
   3.97567195  9.34409173  4.57115599
  10.03953335  9.34672848  4.64682037
   3.82022217  3.11704600 10.95180449
  10.33319820  3.11632517 11.01433890
   4.04537730  9.34413625 10.94486630
  10.10923870  9.34677300 11.02053068
   6.01065576  6.24574676  6.29598076
  12.29889648  6.21439238  6.36512424
   6.01107558 12.44220347  6.29565164
  12.29847666  0.01793568  6.36545337
   6.08036111  6.24579128 12.66969108
  12.36860183  6.21443690 12.73883456
   6.08078093 12.44224799 12.66936195
  12.36818201  0.01798020 12.73916368
   5.75319856  6.23815255  3.09086126
  12.04113066  6.22190529  3.16006113
   5.75330976 12.44971638  3.09058853
  12.04101946  0.01034146  3.16033387
   5.82290391  6.23819707  9.46457157
  12.11083601  6.22194982  9.53377144
   5.82301511 12.44976090  9.46429884
  12.11072481  0.01038599  9.53404418
   5.97048536  3.11497153  0.15638905
  11.63181385  3.11595755  0.33827583
   5.34399295  9.34376863  0.26880323
  12.25950189  9.34469852  0.22511524
   6.04019071  3.11501605  6.53009937
  11.70151920  3.11600207  6.71198614
   5.41369830  9.34381315  6.64251354
  12.32920724  9.34474305  6.59882556
   2.78369279  5.85773141  5.90914095
   9.07203112  6.60161123  5.97819428
   2.78301459  0.37188423  5.90946809
   9.07270932 12.08745840  5.97786714
   2.85339815  5.85777593 12.28285126
   9.14173648  6.60165575 12.35190459
   2.85271995  0.37192876 12.28317840
   9.14241468 12.08750293 12.35157745
 


--------------------------------------------------------------------------------------------------------


 k-point  1 :   0.0000 0.0000 0.0000  plane waves:   84007
 k-point  2 :   0.3333-0.0000-0.0000  plane waves:   84003
 k-point  3 :   0.0000 0.3333-0.0000  plane waves:   83995
 k-point  4 :   0.3333 0.3333 0.0000  plane waves:   84018
 k-point  5 :  -0.3333 0.3333 0.0000  plane waves:   84019
 k-point  6 :   0.0000 0.0000 0.3333  plane waves:   83960
 k-point  7 :   0.3333 0.0000 0.3333  plane waves:   83937
 k-point  8 :  -0.3333 0.0000 0.3333  plane waves:   83982
 k-point  9 :   0.0000 0.3333 0.3333  plane waves:   83984
 k-point 10 :   0.3333 0.3333 0.3333  plane waves:   84012
 k-point 11 :  -0.3333 0.3333 0.3333  plane waves:   83970
 k-point 12 :   0.0000-0.3333 0.3333  plane waves:   83977
 k-point 13 :   0.3333-0.3333 0.3333  plane waves:   84013
 k-point 14 :  -0.3333-0.3333 0.3333  plane waves:   83973

 maximum and minimum number of plane-waves per node :      7062     6951

 maximum number of plane-waves:     84019
 maximum index in each direction: 
   IXMAX=   27   IYMAX=   27   IZMAX=   27
   IXMIN=  -27   IYMIN=  -27   IZMIN=  -27

 NGX is ok and might be reduce to 110
 WARNING: aliasing errors must be expected set NGY to 110 to avoid them
 NGZ is ok and might be reduce to 110
 aliasing errors are usually negligible using standard VASP settings
 and one can safely disregard these warnings

 parallel 3D FFT for wavefunctions:
    minimum data exchange during FFTs selected (reduces bandwidth)
 parallel 3D FFT for charge:
    minimum data exchange during FFTs selected (reduces bandwidth)


 FFT grid for exact exchange (Hartree Fock) 
  NGX = 56; NGY = 56; NGZ = 60

 
 Radii for the augmentation spheres in the non-local exchange
 for species   1 augmentation radius   0.944 (default was   0.699)
       energy cutoff for augmentation   2800.0
 for species   2 augmentation radius   0.957 (default was   0.709)
       energy cutoff for augmentation   2800.0
 for species   3 augmentation radius   0.702 (default was   0.520)
       energy cutoff for augmentation   2800.0
 for species   4 augmentation radius   1.558 (default was   1.154)
       energy cutoff for augmentation   2800.0
 for species   5 augmentation radius   1.603 (default was   1.188)
       energy cutoff for augmentation   2800.0

 real space projection operators:
  total allocation   :      10801.00 KBytes
  max/ min on nodes  :       1210.34        487.81

 Maximum index for augmentation-charges in exchange          234
  SETUP_FOCK is finished

 total amount of memory used by VASP on root node   222690. kBytes
========================================================================

   base      :      30000. kBytes
   nonl-proj :      82891. kBytes
   fftplans  :      15020. kBytes
   grid      :      12652. kBytes
   one-center:        124. kBytes
   HF        :        259. kBytes
   nonlr-proj:       4158. kBytes
   wavefun   :      77586. kBytes
 
     INWAV:  cpu time    0.0000: real time    0.0002
 Broyden mixing: mesh for mixing (old mesh)
   NGX = 55   NGY = 53   NGZ = 55
  (NGX  =224   NGY  =216   NGZ  =224)
  gives a total of 160325 points

 initial charge density was supplied:
 charge density of overlapping atoms calculated
 number of electron     400.0000000 magnetization 
 keeping initial charge density in first step


--------------------------------------------------------------------------------------------------------


 Maximum index for augmentation-charges         5392 (set IRDMAX)


--------------------------------------------------------------------------------------------------------


 First call to EWALD:  gamma=   0.141
 Maximum number of real-space cells 3x 3x 3
 Maximum number of reciprocal cells 3x 3x 3

 FEWALD executed in parallel
    FEWALD:  cpu time    0.0120: real time    0.0129


----------------------------------------- Iteration    1(   1)  ---------------------------------------


    POTLOK:  cpu time    0.2600: real time    0.2617
    SETDIJ:  cpu time    0.6240: real time    0.6242
    TRIAL :  cpu time    4.6243: real time    4.6285
    CORREC:  cpu time    0.0040: real time    0.0027
    --------------------------------------------
      LOOP:  cpu time    5.5483: real time    5.5786

 eigenvalue-minimisations  : 11712
 total energy-change (2. order) : 0.3486916E+05  (-0.1138940E+06)
 number of electron     400.0000000 magnetization 
 augmentation part      400.0000000 magnetization 

 Free energy of the ion-electron system (eV)
  ---------------------------------------------------
  alpha Z        PSCENC =       370.05370877
  Ewald energy   TEWEN  =    -15558.77624044
  -Hartree energ DENC   =     -8097.86672376
  -exchange      EXHF   =         0.00000000
  -V(xc)+E(xc)   XCENC  =       254.30721215
  PAW double counting   =     20708.16285019   -20051.16882790
  entropy T*S    EENTRO =         0.00000000
  eigenvalues    EBANDS =     32564.02220680
  atomic energy  EATOM  =     24680.42500649
  ---------------------------------------------------
  free energy    TOTEN  =     34869.15919231 eV

  energy without entropy =    34869.15919231  energy(sigma->0) =    34869.15919231
  exchange ACFDT corr.  =         0.00000000  see jH, gK, PRB 81, 115126


--------------------------------------------------------------------------------------------------------




----------------------------------------- Iteration    1(   2)  ---------------------------------------


    TRIAL :  cpu time    3.4922: real time    3.4937
    CORREC:  cpu time    0.0040: real time    0.0057
    --------------------------------------------
      LOOP:  cpu time    3.5002: real time    3.5459

 eigenvalue-minimisations  :  8512
 total energy-change (2. order) :-0.2617365E+05  (-0.2544988E+05)
 number of electron     400.0000000 magnetization 
 augmentation part      400.0000000 magnetization 

 Free energy of the ion-electron system (eV)
  ---------------------------------------------------
  alpha Z        PSCENC =       370.05370877
  Ewald energy   TEWEN  =    -15558.77624044
  -Hartree energ DENC   =     -8097.86672376
  -exchange      EXHF   =         0.00000000
  -V(xc)+E(xc)   XCENC  =       254.30721215
  PAW double counting   =     20708.16285019   -20051.16882790
  entropy T*S    EENTRO =        -0.00005262
  eigenvalues    EBANDS =      6390.37639723
  atomic energy  EATOM  =     24680.42500649
  ---------------------------------------------------
  free energy    TOTEN  =      8695.51333011 eV

  energy without entropy =     8695.51338274  energy(sigma->0) =     8695.51335643
  exchange ACFDT corr.  =         0.00000000  see jH, gK, PRB 81, 115126


--------------------------------------------------------------------------------------------------------




----------------------------------------- Iteration    1(   3)  ---------------------------------------


    TRIAL :  cpu time    3.5682: real time    3.5741
    CORREC:  cpu time    0.0040: real time    0.0007
    --------------------------------------------
      LOOP:  cpu time    3.5762: real time    3.9285

 eigenvalue-minimisations  :  9008
 total energy-change (2. order) :-0.6889133E+04  (-0.6784363E+04)
 number of electron     400.0000000 magnetization 
 augmentation part      400.0000000 magnetization 

 Free energy of the ion-electron system (eV)
  ---------------------------------------------------
  alpha Z        PSCENC =       370.05370877
  Ewald energy   TEWEN  =    -15558.77624044
  -Hartree energ DENC   =     -8097.86672376
  -exchange      EXHF   =         0.00000000
  -V(xc)+E(xc)   XCENC  =       254.30721215
  PAW double counting   =     20708.16285019   -20051.16882790
  entropy T*S    EENTRO =        -0.00000000
  eigenvalues    EBANDS =      -498.75708454
  atomic energy  EATOM  =     24680.42500649
  ---------------------------------------------------
  free energy    TOTEN  =      1806.37990096 eV

  energy without entropy =     1806.37990096  energy(sigma->0) =     1806.37990096
  exchange ACFDT corr.  =         0.00000000  see jH, gK, PRB 81, 115126


--------------------------------------------------------------------------------------------------------




----------------------------------------- Iteration    1(   4)  ---------------------------------------


    TRIAL :  cpu time    4.0363: real time    4.6471
    CORREC:  cpu time    0.0040: real time    0.0018
    --------------------------------------------
      LOOP:  cpu time    4.0403: real time    4.6681

 eigenvalue-minimisations  : 10048
 total energy-change (2. order) :-0.1366541E+04  (-0.1306751E+04)
 number of electron     400.0000000 magnetization 
 augmentation part      400.0000000 magnetization 

 Free energy of the ion-electron system (eV)
  ---------------------------------------------------
  alpha Z        PSCENC =       370.05370877
  Ewald energy   TEWEN  =    -15558.77624044
  -Hartree energ DENC   =     -8097.86672376
  -exchange      EXHF   =         0.00000000
  -V(xc)+E(xc)   XCENC  =       254.30721215
  PAW double counting   =     20708.16285019   -20051.16882790
  entropy T*S    EENTRO =        -0.00000000
  eigenvalues    EBANDS =     -1865.29852429
  atomic energy  EATOM  =     24680.42500649
  ---------------------------------------------------
  free energy    TOTEN  =       439.83846121 eV

  energy without entropy =      439.83846121  energy(sigma->0) =      439.83846121
  exchange ACFDT corr.  =         0.00000000  see jH, gK, PRB 81, 115126


--------------------------------------------------------------------------------------------------------




----------------------------------------- Iteration    1(   5)  ---------------------------------------


    TRIAL :  cpu time    3.8722: real time    3.8745
    CORREC:  cpu time    0.0000: real time    0.0015
    CHARGE:  cpu time    0.8721: real time    0.8729
    --------------------------------------------
      LOOP:  cpu time    4.7443: real time    4.8745

 eigenvalue-minimisations  :  9568
 total energy-change (2. order) :-0.1658164E+03  (-0.1632676E+03)
 number of electron     400.0000000 magnetization 
 augmentation part       12.9596719 magnetization 

 Free energy of the ion-electron system (eV)
  ---------------------------------------------------
  alpha Z        PSCENC =       370.05370877
  Ewald energy   TEWEN  =    -15558.77624044
  -Hartree energ DENC   =     -8097.86672376
  -exchange      EXHF   =         0.00000000
  -V(xc)+E(xc)   XCENC  =       254.30721215
  PAW double counting   =     20708.16285019   -20051.16882790
  entropy T*S    EENTRO =        -0.00000000
  eigenvalues    EBANDS =     -2031.11495202
  atomic energy  EATOM  =     24680.42500649
  ---------------------------------------------------
  free energy    TOTEN  =       274.02203348 eV

  energy without entropy =      274.02203348  energy(sigma->0) =      274.02203348
  exchange ACFDT corr.  =         0.00000000  see jH, gK, PRB 81, 115126


--------------------------------------------------------------------------------------------------------




----------------------------------------- Iteration    1(   6)  ---------------------------------------


    POTLOK:  cpu time    0.2720: real time    0.2723
    SETDIJ:  cpu time    0.6480: real time    0.6492
    TRIAL :  cpu time  288.7540: real time  288.9296
    CORREC:  cpu time  291.0022: real time  291.1808
    CHARGE:  cpu time    0.8601: real time    0.8624
    --------------------------------------------
      LOOP:  cpu time  581.5443: real time  581.9223

 eigenvalue-minimisations  :     0
 total energy-change (2. order) :-0.7229377E+03  (-0.1868773E+02)
 number of electron     400.0000000 magnetization 
 augmentation part       13.3336825 magnetization 

 Free energy of the ion-electron system (eV)
  ---------------------------------------------------
  alpha Z        PSCENC =       370.05370877
  Ewald energy   TEWEN  =    -15558.77624044
  -Hartree energ DENC   =     -8158.01750478
  -exchange      EXHF   =       752.56883400
  -V(xc)+E(xc)   XCENC  =       272.99664162
  PAW double counting   =     55528.85266210   -54859.69943250
  entropy T*S    EENTRO =         0.00000000
  eigenvalues    EBANDS =     -3477.31929796
  atomic energy  EATOM  =     24680.42500649
  ---------------------------------------------------
  free energy    TOTEN  =      -448.91562270 eV

  energy without entropy =     -448.91562270  energy(sigma->0) =     -448.91562270
  exchange ACFDT corr.  =         0.00000000  see jH, gK, PRB 81, 115126


--------------------------------------------------------------------------------------------------------




----------------------------------------- Iteration    1(   7)  ---------------------------------------


    POTLOK:  cpu time    0.2600: real time    0.2584
    SETDIJ:  cpu time    0.6520: real time    0.6532
    TRIAL :  cpu time  289.9741: real time  290.1492
    CORREC:  cpu time  291.4422: real time  291.6169
    CHARGE:  cpu time    0.8601: real time    0.8618
    --------------------------------------------
      LOOP:  cpu time  583.1884: real time  583.5539

 eigenvalue-minimisations  :     0
 total energy-change (2. order) :-0.1862016E+02  (-0.7689096E+01)
 number of electron     400.0000000 magnetization 
 augmentation part        9.8474292 magnetization 

 Free energy of the ion-electron system (eV)
  ---------------------------------------------------
  alpha Z        PSCENC =       370.05370877
  Ewald energy   TEWEN  =    -15558.77624044
  -Hartree energ DENC   =     -8436.34037218
  -exchange      EXHF   =       762.15532567
  -V(xc)+E(xc)   XCENC  =       279.74920784
  PAW double counting   =     49528.59486092   -48856.78057638
  entropy T*S    EENTRO =         0.00000000
  eigenvalues    EBANDS =     -3236.61670591
  atomic energy  EATOM  =     24680.42500649
  ---------------------------------------------------
  free energy    TOTEN  =      -467.53578522 eV

  energy without entropy =     -467.53578522  energy(sigma->0) =     -467.53578522
  exchange ACFDT corr.  =         0.00000000  see jH, gK, PRB 81, 115126


--------------------------------------------------------------------------------------------------------




----------------------------------------- Iteration    1(   8)  ---------------------------------------


    POTLOK:  cpu time    0.2600: real time    0.2609
    SETDIJ:  cpu time    0.6520: real time    0.6525
    TRIAL :  cpu time  290.5822: real time  290.7873
    CORREC:  cpu time  291.6262: real time  291.8035
    CHARGE:  cpu time    0.8601: real time    0.8636
    --------------------------------------------
      LOOP:  cpu time  583.9885: real time  584.3833

 eigenvalue-minimisations  :     0
 total energy-change (2. order) :-0.7688723E+01  (-0.2750070E+01)
 number of electron     400.0000000 magnetization 
 augmentation part        9.5022832 magnetization 

 Free energy of the ion-electron system (eV)
  ---------------------------------------------------
  alpha Z        PSCENC =       370.05370877
  Ewald energy   TEWEN  =    -15558.77624044
  -Hartree energ DENC   =     -8363.23683869
  -exchange      EXHF   =       765.31517723
  -V(xc)+E(xc)   XCENC  =       277.92752178
  PAW double counting   =     43442.55683421   -42778.67890604
  entropy T*S    EENTRO =         0.00000000
  eigenvalues    EBANDS =     -3310.81077154
  atomic energy  EATOM  =     24680.42500649
  ---------------------------------------------------
  free energy    TOTEN  =      -475.22450824 eV

  energy without entropy =     -475.22450824  energy(sigma->0) =     -475.22450824
  exchange ACFDT corr.  =         0.00000000  see jH, gK, PRB 81, 115126


--------------------------------------------------------------------------------------------------------




----------------------------------------- Iteration    1(   9)  ---------------------------------------


    POTLOK:  cpu time    0.2600: real time    0.2624
    SETDIJ:  cpu time    0.6280: real time    0.6272
    TRIAL :  cpu time  289.4741: real time  289.6731
    CORREC:  cpu time  291.0702: real time  291.2498
    CHARGE:  cpu time    0.8721: real time    0.8694
    --------------------------------------------
      LOOP:  cpu time  582.3084: real time  582.7191

 eigenvalue-minimisations  :     0
 total energy-change (2. order) :-0.2750962E+01  (-0.8667774E+00)
 number of electron     400.0000000 magnetization 
 augmentation part        9.5987699 magnetization 

 Free energy of the ion-electron system (eV)
  ---------------------------------------------------
  alpha Z        PSCENC =       370.05370877
  Ewald energy   TEWEN  =    -15558.77624044
  -Hartree energ DENC   =     -8408.70004989
  -exchange      EXHF   =       768.38668967
  -V(xc)+E(xc)   XCENC  =       279.39978737
  PAW double counting   =     38197.11208218   -37534.43363543
  entropy T*S    EENTRO =        -0.00000000
  eigenvalues    EBANDS =     -3271.44281894
  atomic energy  EATOM  =     24680.42500649
  ---------------------------------------------------
  free energy    TOTEN  =      -477.97547022 eV

  energy without entropy =     -477.97547022  energy(sigma->0) =     -477.97547022
  exchange ACFDT corr.  =         0.00000000  see jH, gK, PRB 81, 115126


--------------------------------------------------------------------------------------------------------




----------------------------------------- Iteration    1(  10)  ---------------------------------------


    POTLOK:  cpu time    0.2600: real time    0.2583
    SETDIJ:  cpu time    0.6200: real time    0.6203
    TRIAL :  cpu time  289.1461: real time  289.4787
    CORREC:  cpu time  290.6462: real time  290.8235
    CHARGE:  cpu time    0.8681: real time    0.8681
    --------------------------------------------
      LOOP:  cpu time  581.5403: real time  582.0952

 eigenvalue-minimisations  :     0
 total energy-change (2. order) :-0.8661350E+00  (-0.2226023E+00)
 number of electron     400.0000000 magnetization 
 augmentation part        9.2407606 magnetization 

 Free energy of the ion-electron system (eV)
  ---------------------------------------------------
  alpha Z        PSCENC =       370.05370877
  Ewald energy   TEWEN  =    -15558.77624044
  -Hartree energ DENC   =     -8413.04471564
  -exchange      EXHF   =       767.92626091
  -V(xc)+E(xc)   XCENC  =       278.78226079
  PAW double counting   =     35712.12977454   -35048.09854955
  entropy T*S    EENTRO =         0.00000000
  eigenvalues    EBANDS =     -3268.23911106
  atomic energy  EATOM  =     24680.42500649
  ---------------------------------------------------
  free energy    TOTEN  =      -478.84160520 eV

  energy without entropy =     -478.84160520  energy(sigma->0) =     -478.84160520
  exchange ACFDT corr.  =         0.00000000  see jH, gK, PRB 81, 115126


--------------------------------------------------------------------------------------------------------




----------------------------------------- Iteration    1(  11)  ---------------------------------------


    POTLOK:  cpu time    0.2560: real time    0.2579
    SETDIJ:  cpu time    0.4760: real time    0.4739
    TRIAL :  cpu time  288.9301: real time  289.1285
    CORREC:  cpu time  291.4342: real time  291.6092
    CHARGE:  cpu time    0.8761: real time    0.8761
    --------------------------------------------
      LOOP:  cpu time  581.9764: real time  582.6341

 eigenvalue-minimisations  :     0
 total energy-change (2. order) :-0.2225921E+00  (-0.1124881E+00)
 number of electron     400.0000000 magnetization 
 augmentation part        9.3355108 magnetization 

 Free energy of the ion-electron system (eV)
  ---------------------------------------------------
  alpha Z        PSCENC =       370.05370877
  Ewald energy   TEWEN  =    -15558.77624044
  -Hartree energ DENC   =     -8384.73719869
  -exchange      EXHF   =       767.31740706
  -V(xc)+E(xc)   XCENC  =       277.82141332
  PAW double counting   =     35096.06196978   -34432.35640225
  entropy T*S    EENTRO =         0.00000000
  eigenvalues    EBANDS =     -3294.87386138
  atomic energy  EATOM  =     24680.42500649
  ---------------------------------------------------
  free energy    TOTEN  =      -479.06419734 eV

  energy without entropy =     -479.06419734  energy(sigma->0) =     -479.06419734
  exchange ACFDT corr.  =         0.00000000  see jH, gK, PRB 81, 115126


--------------------------------------------------------------------------------------------------------




----------------------------------------- Iteration    1(  12)  ---------------------------------------


    POTLOK:  cpu time    0.2640: real time    0.2628
    SETDIJ:  cpu time    0.6800: real time    0.6790
    TRIAL :  cpu time  290.0101: real time  290.2100
    CORREC:  cpu time  292.6903: real time  292.8675
    CHARGE:  cpu time    0.8641: real time    0.8623
    --------------------------------------------
      LOOP:  cpu time  584.5085: real time  584.8991

 eigenvalue-minimisations  :     0
 total energy-change (2. order) :-0.1123819E+00  (-0.3455071E-01)
 number of electron     400.0000000 magnetization 
 augmentation part        9.3485383 magnetization 

 Free energy of the ion-electron system (eV)
  ---------------------------------------------------
  alpha Z        PSCENC =       370.05370877
  Ewald energy   TEWEN  =    -15558.77624044
  -Hartree energ DENC   =     -8402.39068161
  -exchange      EXHF   =       767.84478283
  -V(xc)+E(xc)   XCENC  =       278.27620905
  PAW double counting   =     34973.87409405   -34309.67958759
  entropy T*S    EENTRO =         0.00000000
  eigenvalues    EBANDS =     -3278.80387074
  atomic energy  EATOM  =     24680.42500649
  ---------------------------------------------------
  free energy    TOTEN  =      -479.17657919 eV

  energy without entropy =     -479.17657919  energy(sigma->0) =     -479.17657919
  exchange ACFDT corr.  =         0.00000000  see jH, gK, PRB 81, 115126


--------------------------------------------------------------------------------------------------------




----------------------------------------- Iteration    1(  13)  ---------------------------------------


    POTLOK:  cpu time    0.2600: real time    0.2589
    SETDIJ:  cpu time    0.6240: real time    0.6237
    TRIAL :  cpu time  290.8182: real time  291.0221
    CORREC:  cpu time  292.3343: real time  292.5091
    CHARGE:  cpu time    0.8641: real time    0.8633
    --------------------------------------------
      LOOP:  cpu time  584.9006: real time  585.3183

 eigenvalue-minimisations  :     0
 total energy-change (2. order) :-0.3449077E-01  (-0.9832702E-02)
 number of electron     400.0000000 magnetization 
 augmentation part        9.3236435 magnetization 

 Free energy of the ion-electron system (eV)
  ---------------------------------------------------
  alpha Z        PSCENC =       370.05370877
  Ewald energy   TEWEN  =    -15558.77624044
  -Hartree energ DENC   =     -8403.05715053
  -exchange      EXHF   =       767.95134618
  -V(xc)+E(xc)   XCENC  =       278.35516117
  PAW double counting   =     35166.76839569   -34502.56668260
  entropy T*S    EENTRO =         0.00000000
  eigenvalues    EBANDS =     -3278.36461468
  atomic energy  EATOM  =     24680.42500649
  ---------------------------------------------------
  free energy    TOTEN  =      -479.21106996 eV

  energy without entropy =     -479.21106996  energy(sigma->0) =     -479.21106996
  exchange ACFDT corr.  =         0.00000000  see jH, gK, PRB 81, 115126


--------------------------------------------------------------------------------------------------------




----------------------------------------- Iteration    1(  14)  ---------------------------------------


    POTLOK:  cpu time    0.2640: real time    0.2622
    SETDIJ:  cpu time    0.6520: real time    0.6531
    TRIAL :  cpu time  290.8942: real time  291.0898
    CORREC:  cpu time  292.1583: real time  292.3325
    CHARGE:  cpu time    0.8601: real time    0.8622
    --------------------------------------------
      LOOP:  cpu time  584.8286: real time  585.2129

 eigenvalue-minimisations  :     0
 total energy-change (2. order) :-0.9829226E-02  (-0.2850044E-02)
 number of electron     400.0000000 magnetization 
 augmentation part        9.3560886 magnetization 

 Free energy of the ion-electron system (eV)
  ---------------------------------------------------
  alpha Z        PSCENC =       370.05370877
  Ewald energy   TEWEN  =    -15558.77624044
  -Hartree energ DENC   =     -8399.97947780
  -exchange      EXHF   =       767.87766516
[...]


 FORCES acting on ions:
    Electron-Ion                     Ewald-Force                    Non-Local-Force
 -----------------------------------------------------------------------------------------------
   0.845E+02 0.559E-01 0.448E+02   -.911E+02 -.639E-01 -.491E+02   0.634E+01 0.732E-02 0.385E+01
   0.832E+02 0.518E-01 0.276E+02   -.906E+02 -.609E-01 -.301E+02   0.703E+01 0.841E-02 0.214E+01
   0.832E+02 0.518E-01 0.276E+02   -.906E+02 -.609E-01 -.301E+02   0.703E+01 0.841E-02 0.214E+01
   0.845E+02 0.559E-01 0.448E+02   -.911E+02 -.639E-01 -.491E+02   0.634E+01 0.732E-02 0.385E+01
   0.845E+02 0.559E-01 0.448E+02   -.911E+02 -.639E-01 -.491E+02   0.634E+01 0.732E-02 0.385E+01
   0.832E+02 0.518E-01 0.276E+02   -.906E+02 -.609E-01 -.301E+02   0.703E+01 0.841E-02 0.214E+01
   0.832E+02 0.518E-01 0.276E+02   -.906E+02 -.609E-01 -.301E+02   0.703E+01 0.841E-02 0.214E+01
   0.845E+02 0.559E-01 0.448E+02   -.911E+02 -.639E-01 -.491E+02   0.634E+01 0.732E-02 0.385E+01
   -.346E+02 -.600E-01 -.207E+02   0.338E+02 0.545E-01 0.198E+02   0.113E+01 0.486E-02 0.115E+01
   -.390E+02 -.119E+00 -.126E+02   0.377E+02 0.117E+00 0.129E+02   0.159E+01 0.204E-02 -.141E-01
   -.390E+02 -.119E+00 -.126E+02   0.377E+02 0.117E+00 0.129E+02   0.159E+01 0.204E-02 -.141E-01
   -.346E+02 -.600E-01 -.207E+02   0.338E+02 0.545E-01 0.198E+02   0.113E+01 0.486E-02 0.115E+01
   -.346E+02 -.600E-01 -.207E+02   0.338E+02 0.545E-01 0.198E+02   0.113E+01 0.486E-02 0.115E+01
   -.390E+02 -.119E+00 -.126E+02   0.377E+02 0.117E+00 0.129E+02   0.159E+01 0.204E-02 -.141E-01
   -.390E+02 -.119E+00 -.126E+02   0.377E+02 0.117E+00 0.129E+02   0.159E+01 0.204E-02 -.141E-01
   -.346E+02 -.600E-01 -.207E+02   0.338E+02 0.545E-01 0.198E+02   0.113E+01 0.486E-02 0.115E+01
   0.619E+00 0.625E-01 0.508E+02   0.282E+00 -.695E-01 -.558E+02   -.982E+00 0.755E-02 0.546E+01
   0.965E+01 0.307E-01 0.511E+02   -.999E+01 -.340E-01 -.562E+02   0.381E+00 0.347E-02 0.552E+01
   0.965E+01 0.307E-01 0.511E+02   -.999E+01 -.340E-01 -.562E+02   0.381E+00 0.347E-02 0.552E+01
   0.619E+00 0.625E-01 0.508E+02   0.282E+00 -.695E-01 -.558E+02   -.982E+00 0.755E-02 0.546E+01
   0.619E+00 0.625E-01 0.508E+02   0.282E+00 -.695E-01 -.558E+02   -.982E+00 0.755E-02 0.546E+01
   0.965E+01 0.307E-01 0.511E+02   -.999E+01 -.340E-01 -.562E+02   0.381E+00 0.347E-02 0.552E+01
   0.965E+01 0.307E-01 0.511E+02   -.999E+01 -.340E-01 -.562E+02   0.381E+00 0.347E-02 0.552E+01
   0.619E+00 0.625E-01 0.508E+02   0.282E+00 -.695E-01 -.558E+02   -.982E+00 0.755E-02 0.546E+01
   0.331E+02 -.393E+02 -.689E+01   -.359E+02 0.436E+02 0.811E+01   0.299E+01 -.455E+01 -.128E+01
   0.273E+02 -.393E+02 -.134E+02   -.298E+02 0.437E+02 0.153E+02   0.264E+01 -.454E+01 -.195E+01
   0.273E+02 -.393E+02 -.134E+02   -.298E+02 0.437E+02 0.153E+02   0.264E+01 -.454E+01 -.195E+01
   0.331E+02 -.393E+02 -.689E+01   -.359E+02 0.436E+02 0.811E+01   0.299E+01 -.455E+01 -.128E+01
   0.331E+02 -.393E+02 -.689E+01   -.359E+02 0.436E+02 0.811E+01   0.299E+01 -.455E+01 -.128E+01
   0.273E+02 -.393E+02 -.134E+02   -.298E+02 0.437E+02 0.153E+02   0.264E+01 -.454E+01 -.195E+01
   0.273E+02 -.393E+02 -.134E+02   -.298E+02 0.437E+02 0.153E+02   0.264E+01 -.454E+01 -.195E+01
   0.331E+02 -.393E+02 -.689E+01   -.359E+02 0.436E+02 0.811E+01   0.299E+01 -.455E+01 -.128E+01
   0.331E+02 0.392E+02 -.700E+01   -.359E+02 -.436E+02 0.823E+01   0.299E+01 0.455E+01 -.129E+01
   0.272E+02 0.393E+02 -.135E+02   -.297E+02 -.437E+02 0.154E+02   0.263E+01 0.454E+01 -.196E+01
   0.272E+02 0.393E+02 -.135E+02   -.297E+02 -.437E+02 0.154E+02   0.263E+01 0.454E+01 -.196E+01
   0.331E+02 0.392E+02 -.700E+01   -.359E+02 -.436E+02 0.823E+01   0.299E+01 0.455E+01 -.129E+01
   0.331E+02 0.392E+02 -.700E+01   -.359E+02 -.436E+02 0.823E+01   0.299E+01 0.455E+01 -.129E+01
   0.272E+02 0.393E+02 -.135E+02   -.297E+02 -.437E+02 0.154E+02   0.263E+01 0.454E+01 -.196E+01
   0.272E+02 0.393E+02 -.135E+02   -.297E+02 -.437E+02 0.154E+02   0.263E+01 0.454E+01 -.196E+01
   0.331E+02 0.392E+02 -.700E+01   -.359E+02 -.436E+02 0.823E+01   0.299E+01 0.455E+01 -.129E+01
   -.354E+02 -.478E+02 0.136E+02   0.388E+02 0.529E+02 -.149E+02   -.369E+01 -.541E+01 0.140E+01
   -.313E+02 -.488E+02 0.210E+02   0.343E+02 0.539E+02 -.232E+02   -.332E+01 -.541E+01 0.229E+01
   -.313E+02 -.488E+02 0.210E+02   0.343E+02 0.539E+02 -.232E+02   -.332E+01 -.541E+01 0.229E+01
   -.354E+02 -.478E+02 0.136E+02   0.388E+02 0.529E+02 -.149E+02   -.369E+01 -.541E+01 0.140E+01
   -.354E+02 -.478E+02 0.136E+02   0.388E+02 0.529E+02 -.149E+02   -.369E+01 -.541E+01 0.140E+01
   -.313E+02 -.488E+02 0.210E+02   0.343E+02 0.539E+02 -.232E+02   -.332E+01 -.541E+01 0.229E+01
   -.313E+02 -.488E+02 0.210E+02   0.343E+02 0.539E+02 -.232E+02   -.332E+01 -.541E+01 0.229E+01
   -.354E+02 -.478E+02 0.136E+02   0.388E+02 0.529E+02 -.149E+02   -.369E+01 -.541E+01 0.140E+01
   -.354E+02 0.478E+02 0.134E+02   0.388E+02 -.529E+02 -.147E+02   -.369E+01 0.542E+01 0.138E+01
   -.313E+02 0.488E+02 0.210E+02   0.344E+02 -.539E+02 -.231E+02   -.333E+01 0.541E+01 0.228E+01
   -.313E+02 0.488E+02 0.210E+02   0.344E+02 -.539E+02 -.231E+02   -.333E+01 0.541E+01 0.228E+01
   -.354E+02 0.478E+02 0.134E+02   0.388E+02 -.529E+02 -.147E+02   -.369E+01 0.542E+01 0.138E+01
   -.354E+02 0.478E+02 0.134E+02   0.388E+02 -.529E+02 -.147E+02   -.369E+01 0.542E+01 0.138E+01
   -.313E+02 0.488E+02 0.210E+02   0.344E+02 -.539E+02 -.231E+02   -.333E+01 0.541E+01 0.228E+01
   -.313E+02 0.488E+02 0.210E+02   0.344E+02 -.539E+02 -.231E+02   -.333E+01 0.541E+01 0.228E+01
   -.354E+02 0.478E+02 0.134E+02   0.388E+02 -.529E+02 -.147E+02   -.369E+01 0.542E+01 0.138E+01
   0.114E+02 -.920E-01 -.647E+02   -.123E+02 0.102E+00 0.710E+02   0.922E+00 -.109E-01 -.682E+01
   -.444E+01 -.485E-01 -.603E+02   0.514E+01 0.522E-01 0.662E+02   -.870E+00 -.366E-02 -.649E+01
   -.444E+01 -.485E-01 -.603E+02   0.514E+01 0.522E-01 0.662E+02   -.870E+00 -.366E-02 -.649E+01
   0.114E+02 -.920E-01 -.647E+02   -.123E+02 0.102E+00 0.710E+02   0.922E+00 -.109E-01 -.682E+01
   0.114E+02 -.920E-01 -.647E+02   -.123E+02 0.102E+00 0.710E+02   0.922E+00 -.109E-01 -.682E+01
   -.444E+01 -.485E-01 -.603E+02   0.514E+01 0.522E-01 0.662E+02   -.870E+00 -.366E-02 -.649E+01
   -.444E+01 -.485E-01 -.603E+02   0.514E+01 0.522E-01 0.662E+02   -.870E+00 -.366E-02 -.649E+01
   0.114E+02 -.920E-01 -.647E+02   -.123E+02 0.102E+00 0.710E+02   0.922E+00 -.109E-01 -.682E+01
   -.307E+02 -.102E+02 -.117E+02   0.294E+02 0.103E+02 0.114E+02   0.122E+01 -.840E-01 0.321E+00
   -.307E+02 0.103E+02 -.117E+02   0.294E+02 -.104E+02 0.114E+02   0.122E+01 0.947E-01 0.320E+00
   -.307E+02 0.103E+02 -.117E+02   0.294E+02 -.104E+02 0.114E+02   0.122E+01 0.947E-01 0.320E+00
   -.307E+02 -.102E+02 -.117E+02   0.294E+02 0.103E+02 0.114E+02   0.122E+01 -.840E-01 0.321E+00
   -.307E+02 -.102E+02 -.117E+02   0.294E+02 0.103E+02 0.114E+02   0.122E+01 -.840E-01 0.321E+00
   -.307E+02 0.103E+02 -.117E+02   0.294E+02 -.104E+02 0.114E+02   0.122E+01 0.947E-01 0.320E+00
   -.307E+02 0.103E+02 -.117E+02   0.294E+02 -.104E+02 0.114E+02   0.122E+01 0.947E-01 0.320E+00
   -.307E+02 -.102E+02 -.117E+02   0.294E+02 0.103E+02 0.114E+02   0.122E+01 -.840E-01 0.321E+00
   -.173E+02 -.535E+01 0.559E+01   0.174E+02 0.537E+01 -.552E+01   -.947E-01 -.103E-01 -.774E-01
   -.172E+02 0.543E+01 0.560E+01   0.173E+02 -.545E+01 -.553E+01   -.937E-01 0.114E-01 -.771E-01
   -.172E+02 0.543E+01 0.560E+01   0.173E+02 -.545E+01 -.553E+01   -.937E-01 0.114E-01 -.771E-01
   -.173E+02 -.535E+01 0.559E+01   0.174E+02 0.537E+01 -.552E+01   -.947E-01 -.103E-01 -.774E-01
   -.173E+02 -.535E+01 0.559E+01   0.174E+02 0.537E+01 -.552E+01   -.947E-01 -.103E-01 -.774E-01
   -.172E+02 0.543E+01 0.560E+01   0.173E+02 -.545E+01 -.553E+01   -.937E-01 0.114E-01 -.771E-01
   -.172E+02 0.543E+01 0.560E+01   0.173E+02 -.545E+01 -.553E+01   -.937E-01 0.114E-01 -.771E-01
   -.173E+02 -.535E+01 0.559E+01   0.174E+02 0.537E+01 -.552E+01   -.947E-01 -.103E-01 -.774E-01
   -.304E+02 -.461E-01 -.161E+02   0.305E+02 0.474E-01 0.166E+02   -.497E-01 -.104E-02 -.517E+00
   0.236E+01 -.618E-01 -.162E+02   -.263E+01 0.632E-01 0.169E+02   0.285E+00 -.113E-02 -.723E+00
   0.236E+01 -.618E-01 -.162E+02   -.263E+01 0.632E-01 0.169E+02   0.285E+00 -.113E-02 -.723E+00
   -.304E+02 -.461E-01 -.161E+02   0.305E+02 0.474E-01 0.166E+02   -.497E-01 -.104E-02 -.517E+00
   -.304E+02 -.461E-01 -.161E+02   0.305E+02 0.474E-01 0.166E+02   -.497E-01 -.104E-02 -.517E+00
   0.236E+01 -.618E-01 -.162E+02   -.263E+01 0.632E-01 0.169E+02   0.285E+00 -.113E-02 -.723E+00
   0.236E+01 -.618E-01 -.162E+02   -.263E+01 0.632E-01 0.169E+02   0.285E+00 -.113E-02 -.723E+00
   -.304E+02 -.461E-01 -.161E+02   0.305E+02 0.474E-01 0.166E+02   -.497E-01 -.104E-02 -.517E+00
   0.522E+01 0.508E+01 -.292E+01   -.468E+01 -.536E+01 0.253E+01   -.563E+00 0.276E+00 0.416E+00
   0.522E+01 -.506E+01 -.288E+01   -.467E+01 0.535E+01 0.250E+01   -.563E+00 -.277E+00 0.417E+00
   0.522E+01 -.506E+01 -.288E+01   -.467E+01 0.535E+01 0.250E+01   -.563E+00 -.277E+00 0.417E+00
   0.522E+01 0.508E+01 -.292E+01   -.468E+01 -.536E+01 0.253E+01   -.563E+00 0.276E+00 0.416E+00
   0.522E+01 0.508E+01 -.292E+01   -.468E+01 -.536E+01 0.253E+01   -.563E+00 0.276E+00 0.416E+00
   0.522E+01 -.506E+01 -.288E+01   -.467E+01 0.535E+01 0.250E+01   -.563E+00 -.277E+00 0.417E+00
   0.522E+01 -.506E+01 -.288E+01   -.467E+01 0.535E+01 0.250E+01   -.563E+00 -.277E+00 0.417E+00
   0.522E+01 0.508E+01 -.292E+01   -.468E+01 -.536E+01 0.253E+01   -.563E+00 0.276E+00 0.416E+00
 -----------------------------------------------------------------------------------------------
   -.603E+02 -.117E+00 -.244E+02   0.665E-12 0.782E-13 0.365E-12   0.565E+02 0.109E+00 0.230E+02
 
 
 POSITION                                       TOTAL-FORCE (eV/Angst)
 -----------------------------------------------------------------------------------
      2.60807      3.11407      2.78832        -0.045779     -0.000442     -0.193914
      8.69990      3.11417      3.17102        -0.096509     -0.000315     -0.176515
      2.41207      9.34198      3.10155        -0.096509     -0.000315     -0.176515
      8.89709      9.34379      2.85704        -0.045779     -0.000442     -0.193914
      2.67778      3.11411      9.16203        -0.045779     -0.000442     -0.193914
      8.76960      3.11421      9.54473        -0.096509     -0.000315     -0.176515
      2.48178      9.34203      9.47526        -0.096509     -0.000315     -0.176515
      8.96680      9.34384      9.23075        -0.045779     -0.000442     -0.193914
      3.89622      3.11536      3.54245         0.315683     -0.000246      0.290510
     10.12939      3.11568      3.59308         0.414606     -0.000498      0.229839
      3.84157      9.34349      3.52361         0.414606     -0.000498      0.229839
     10.18524      9.34508      3.61118         0.315683     -0.000246      0.290510
      3.96593      3.11540      9.91616         0.315683     -0.000246      0.290510
     10.19910      3.11572      9.96679         0.414606     -0.000498      0.229839
      3.91128      9.34353      9.89732         0.414606     -0.000498      0.229839
     10.25494      9.34513      9.98489         0.315683     -0.000246      0.290510
      2.83315      3.11258      1.70389        -0.123786      0.000845      0.662955
      8.65410      3.11350      2.06444         0.057013      0.000279      0.658880
      2.36628      9.34131      1.99496         0.057013      0.000279      0.658880
      9.12217      9.34231      1.77262        -0.123786      0.000845      0.662955
      2.90286      3.11263      8.07760        -0.123786      0.000845      0.662955
      8.72380      3.11354      8.43815         0.057013      0.000279      0.658880
      2.43598      9.34135      8.36867         0.057013      0.000279      0.658880
      9.19188      9.34235      8.14633        -0.123786      0.000845      0.662955
      2.03719      4.01758      3.05770         0.297786     -0.371162     -0.105837
      8.20541      4.01544      3.56790         0.272508     -0.370637     -0.167248
      1.91759     10.24325      3.49843         0.272508     -0.370637     -0.167248
      8.32621     10.24731      3.12643         0.297786     -0.371162     -0.105837
      2.10689      4.01763      9.43141         0.297786     -0.371162     -0.105837
      8.27511      4.01549      9.94161         0.272508     -0.370637     -0.167248
      1.98729     10.24330      9.87214         0.272508     -0.370637     -0.167248
      8.39591     10.24735      9.50014         0.297786     -0.371162     -0.105837
      2.03773      2.21100      3.06029         0.296691      0.370847     -0.107352
      8.20720      2.21242      3.56901         0.270899      0.370831     -0.168044
      1.91938      8.44023      3.49953         0.270899      0.370831     -0.168044
      8.32674      8.44073      3.12902         0.296691      0.370847     -0.107352
      2.10743      2.21105      9.43400         0.296691      0.370847     -0.107352
      8.27691      2.21246      9.94272         0.270899      0.370831     -0.168044
      1.98909      8.44028      9.87324         0.270899      0.370831     -0.168044
      8.39645      8.44078      9.50273         0.296691      0.370847     -0.107352
      4.47379      3.96393      3.32040        -0.436470     -0.564941      0.131337
     10.64217      3.95826      3.23744        -0.402571     -0.551671      0.234679
      4.35435     10.18608      3.16797        -0.402571     -0.551671      0.234679
     10.76281     10.19366      3.38913        -0.436470     -0.564941      0.131337
      4.54350      3.96398      9.69411        -0.436470     -0.564941      0.131337
     10.71187      3.95831      9.61115        -0.402571     -0.551671      0.234679
      4.42405     10.18612      9.54168        -0.402571     -0.551671      0.234679
     10.83251     10.19371      9.76284        -0.436470     -0.564941      0.131337
      4.47393      2.26612      3.32300        -0.437530      0.566339      0.129052
     10.64352      2.27338      3.23849        -0.404500      0.552478      0.233577
      4.35570      8.50119      3.16902        -0.404500      0.552478      0.233577
     10.76295      8.49584      3.39173        -0.437530      0.566339      0.129052
      4.54363      2.26616      9.69671        -0.437530      0.566339      0.129052
     10.71323      2.27342      9.61220        -0.404500      0.552478      0.233577
      4.42541      8.50123      9.54273        -0.404500      0.552478      0.233577
     10.83265      8.49589      9.76544        -0.437530      0.566339      0.129052
      3.75052      3.11700      4.57809         0.058670     -0.001082     -0.839528
     10.26349      3.11628      4.64063        -0.203642     -0.000047     -0.859377
      3.97567      9.34409      4.57116        -0.203642     -0.000047     -0.859377
     10.03953      9.34673      4.64682         0.058670     -0.001082     -0.839528
      3.82022      3.11705     10.95180         0.058670     -0.001082     -0.839528
     10.33320      3.11633     11.01434        -0.203642     -0.000047     -0.859377
      4.04538      9.34414     10.94487        -0.203642     -0.000047     -0.859377
     10.10924      9.34677     11.02053         0.058670     -0.001082     -0.839528
      6.01066      6.24575      6.29598         0.015081      0.006204      0.005924
     12.29890      6.21439      6.36512         0.015003     -0.006518      0.005924
      6.01108     12.44220      6.29565         0.015003     -0.006518      0.005924
     12.29848      0.01794      6.36545         0.015081      0.006204      0.005924
      6.08036      6.24579     12.66969         0.015081      0.006204      0.005924
     12.36860      6.21444     12.73883         0.015003     -0.006518      0.005924
      6.08078     12.44225     12.66936         0.015003     -0.006518      0.005924
     12.36818      0.01798     12.73916         0.015081      0.006204      0.005924
      5.75320      6.23815      3.09086         0.049853      0.007185     -0.014187
     12.04113      6.22191      3.16006         0.049783     -0.007615     -0.014189
      5.75331     12.44972      3.09059         0.049783     -0.007615     -0.014189
     12.04102      0.01034      3.16033         0.049853      0.007185     -0.014187
      5.82290      6.23820      9.46457         0.049853      0.007185     -0.014187
     12.11084      6.22195      9.53377         0.049783     -0.007615     -0.014189
      5.82302     12.44976      9.46430         0.049783     -0.007615     -0.014189
     12.11072      0.01039      9.53404         0.049853      0.007185     -0.014187
      5.97049      3.11497      0.15639         0.078884      0.000200     -0.019664
     11.63181      3.11596      0.33828         0.039474      0.000207     -0.013569
      5.34399      9.34377      0.26880         0.039474      0.000207     -0.013569
     12.25950      9.34470      0.22512         0.078884      0.000200     -0.019664
      6.04019      3.11502      6.53010         0.078884      0.000200     -0.019664
     11.70152      3.11600      6.71199         0.039474      0.000207     -0.013569
      5.41370      9.34381      6.64251         0.039474      0.000207     -0.013569
     12.32921      9.34474      6.59883         0.078884      0.000200     -0.019664
      2.78369      5.85773      5.90914        -0.040581      0.003115      0.048450
      9.07203      6.60161      5.97819        -0.040566     -0.003357      0.048298
      2.78301      0.37188      5.90947        -0.040566     -0.003357      0.048298
      9.07271     12.08746      5.97787        -0.040581      0.003115      0.048450
      2.85340      5.85778     12.28285        -0.040581      0.003115      0.048450
      9.14174      6.60166     12.35190        -0.040566     -0.003357      0.048298
      2.85272      0.37193     12.28318        -0.040566     -0.003357      0.048298
      9.14241     12.08750     12.35158        -0.040581      0.003115      0.048450
 -----------------------------------------------------------------------------------
    total drift:                               -0.001590      0.000428     -0.005600


--------------------------------------------------------------------------------------------------------



  FREE ENERGIE OF THE ION-ELECTRON SYSTEM (eV)
  ---------------------------------------------------
  free  energy   TOTEN  =      -479.22628646 eV

  energy  without entropy=     -479.22628646  energy(sigma->0) =     -479.22628646
 


--------------------------------------------------------------------------------------------------------


    POTLOK:  cpu time    1.1641: real time    1.1669


--------------------------------------------------------------------------------------------------------


     LOOP+:  cpu time16238.5468: real time16253.1037
    4ORBIT:  cpu time    0.0000: real time    0.0000

 total amount of memory used by VASP on root node   247539. kBytes
========================================================================

   base      :      30000. kBytes
   nonl-proj :      82891. kBytes
   fftplans  :      15020. kBytes
   grid      :      12652. kBytes
   one-center:        124. kBytes
   HF        :        259. kBytes
   nonlr-proj:      29007. kBytes
   wavefun   :      77586. kBytes
 
  
  
 General timing and accounting informations for this job:
 ========================================================
  
                  Total CPU time used (sec):    16287.922
                            User time (sec):    16276.437
                          System time (sec):       11.485
                         Elapsed time (sec):    16318.790
  
                   Maximum memory used (kb):      383792.
                   Average memory used (kb):           0.
  
                          Minor page faults:       145904
                          Major page faults:            0
                 Voluntary context switches:          941
