  96  96   0   0
  0.2080188E+02  0.1257760E-08  0.1245754E-08  0.1274818E-08  0.5000000E-15
  1.000000000000000E-004
  CAR 
 MAPbI3-Cubic                            
      8.84179803    -19.49705596  301      1.40284886      1.00000000
    -19.497  0.0000E+00  0.0000E+00
    -19.403  0.0000E+00  0.0000E+00
    -19.308  0.0000E+00  0.0000E+00
    -19.214  0.0000E+00  0.0000E+00
    -19.119  0.0000E+00  0.0000E+00
    -19.025  0.0000E+00  0.0000E+00
    -18.930  0.0000E+00  0.0000E+00
    -18.836  0.0000E+00  0.0000E+00
    -18.741  0.0000E+00  0.0000E+00
    -18.647  0.0000E+00  0.0000E+00
    -18.552  0.0000E+00  0.0000E+00
    -18.458  0.0000E+00  0.0000E+00
    -18.364  0.0000E+00  0.0000E+00
    -18.269  0.0000E+00  0.0000E+00
    -18.175  0.0000E+00  0.1600E+02
    -18.080  0.0000E+00  0.1600E+02
    -17.986  0.0000E+00  0.1600E+02
    -17.891  0.0000E+00  0.1600E+02
    -17.797  0.0000E+00  0.1600E+02
    -17.702  0.0000E+00  0.1600E+02
    -17.608  0.0000E+00  0.1600E+02
    -17.513  0.0000E+00  0.1600E+02
    -17.419  0.0000E+00  0.1600E+02
    -17.324  0.0000E+00  0.1600E+02
    -17.230  0.0000E+00  0.1600E+02
    -17.135  0.0000E+00  0.1600E+02
    -17.041  0.0000E+00  0.1600E+02
    -16.947  0.0000E+00  0.1600E+02
    -16.852  0.0000E+00  0.1600E+02
    -16.758  0.0000E+00  0.1600E+02
    -16.663  0.0000E+00  0.1600E+02
    -16.569  0.0000E+00  0.1600E+02
    -16.474  0.0000E+00  0.1600E+02
    -16.380  0.0000E+00  0.1600E+02
    -16.285  0.0000E+00  0.1600E+02
    -16.191  0.0000E+00  0.1600E+02
    -16.096  0.0000E+00  0.1600E+02
    -16.002  0.0000E+00  0.1600E+02
    -15.907  0.0000E+00  0.1600E+02
    -15.813  0.0000E+00  0.1600E+02
    -15.719  0.0000E+00  0.1600E+02
    -15.624  0.0000E+00  0.1600E+02
    -15.530  0.0000E+00  0.1600E+02
    -15.435  0.0000E+00  0.1600E+02
    -15.341  0.0000E+00  0.1600E+02
    -15.246  0.0000E+00  0.1600E+02
    -15.152  0.0000E+00  0.1600E+02
    -15.057  0.5609E+02  0.5330E+02
    -14.963  0.0000E+00  0.9600E+02
    -14.868  0.0000E+00  0.9600E+02
    -14.774  0.0000E+00  0.9600E+02
    -14.679  0.0000E+00  0.9600E+02
    -14.585  0.0000E+00  0.9600E+02
    -14.491  0.0000E+00  0.9600E+02
    -14.396  0.0000E+00  0.9600E+02
    -14.302  0.0000E+00  0.9600E+02
    -14.207  0.0000E+00  0.9600E+02
    -14.113  0.0000E+00  0.9600E+02
    -14.018  0.0000E+00  0.9600E+02
    -13.924  0.0000E+00  0.9600E+02
    -13.829  0.0000E+00  0.9600E+02
    -13.735  0.0000E+00  0.9600E+02
    -13.640  0.0000E+00  0.9600E+02
    -13.546  0.0000E+00  0.9600E+02
    -13.451  0.0000E+00  0.9600E+02
    -13.357  0.0000E+00  0.9600E+02
    -13.263  0.0000E+00  0.9600E+02
    -13.168  0.0000E+00  0.9600E+02
    -13.074  0.0000E+00  0.9600E+02
    -12.979  0.0000E+00  0.9600E+02
    -12.885  0.0000E+00  0.9600E+02
    -12.790  0.0000E+00  0.9600E+02
    -12.696  0.0000E+00  0.9600E+02
    -12.601  0.0000E+00  0.9600E+02
    -12.507  0.0000E+00  0.9600E+02
    -12.412  0.0000E+00  0.9600E+02
    -12.318  0.0000E+00  0.9600E+02
    -12.223  0.0000E+00  0.9600E+02
    -12.129  0.0000E+00  0.9600E+02
    -12.034  0.0000E+00  0.9600E+02
    -11.940  0.0000E+00  0.9600E+02
    -11.846  0.0000E+00  0.9600E+02
    -11.751  0.0000E+00  0.9600E+02
    -11.657  0.0000E+00  0.9600E+02
    -11.562  0.0000E+00  0.9600E+02
    -11.468  0.0000E+00  0.9600E+02
    -11.373  0.0000E+00  0.9600E+02
    -11.279  0.0000E+00  0.1040E+03
    -11.184  0.0000E+00  0.1120E+03
    -11.090  0.0000E+00  0.1120E+03
    -10.995  0.0000E+00  0.1120E+03
    -10.901  0.0000E+00  0.1120E+03
    -10.806  0.2005E-08  0.1121E+03
    -10.712  0.0000E+00  0.1141E+03
    -10.618  0.3959E+01  0.1185E+03
    -10.523  0.8994E+01  0.1247E+03
    -10.429  0.3137E+01  0.1285E+03
    -10.334  0.2322E+02  0.1320E+03
    -10.240  0.1391E+02  0.1400E+03
    -10.145  0.2264E+00  0.1436E+03
    -10.051  0.9398E+01  0.1494E+03
     -9.956  0.7042E+01  0.1577E+03
     -9.862  0.0000E+00  0.1600E+03
     -9.767  0.0000E+00  0.1600E+03
     -9.673  0.0000E+00  0.1600E+03
     -9.578  0.0000E+00  0.1600E+03
     -9.484  0.0000E+00  0.1600E+03
     -9.390  0.0000E+00  0.1600E+03
     -9.295  0.0000E+00  0.1600E+03
     -9.201  0.0000E+00  0.1600E+03
     -9.106  0.0000E+00  0.1600E+03
     -9.012  0.0000E+00  0.1600E+03
     -8.917  0.0000E+00  0.1600E+03
     -8.823  0.0000E+00  0.1600E+03
     -8.728  0.0000E+00  0.1600E+03
     -8.634  0.0000E+00  0.1600E+03
     -8.539  0.0000E+00  0.1600E+03
     -8.445  0.0000E+00  0.1600E+03
     -8.350  0.0000E+00  0.1600E+03
     -8.256  0.0000E+00  0.1600E+03
     -8.162  0.0000E+00  0.1600E+03
     -8.067  0.0000E+00  0.1600E+03
     -7.973  0.0000E+00  0.1600E+03
     -7.878  0.0000E+00  0.1600E+03
     -7.784  0.0000E+00  0.1600E+03
     -7.689  0.0000E+00  0.1680E+03
     -7.595  0.0000E+00  0.1840E+03
     -7.500  0.0000E+00  0.1920E+03
     -7.406  0.0000E+00  0.1920E+03
     -7.311  0.0000E+00  0.1920E+03
     -7.217  0.0000E+00  0.1920E+03
     -7.122  0.0000E+00  0.1920E+03
     -7.028  0.0000E+00  0.1921E+03
     -6.933  0.0000E+00  0.1921E+03
     -6.839  0.0000E+00  0.1925E+03
     -6.745  0.0000E+00  0.1934E+03
     -6.650  0.5452E+00  0.1942E+03
     -6.556  0.1205E-06  0.1944E+03
     -6.461  0.0000E+00  0.1964E+03
     -6.367  0.0000E+00  0.1988E+03
     -6.272  0.0000E+00  0.2000E+03
     -6.178  0.3109E+01  0.2015E+03
     -6.083  0.1568E+01  0.2036E+03
     -5.989  0.3284E+00  0.2053E+03
     -5.894  0.1073E+00  0.2063E+03
     -5.800  0.2805E+02  0.2126E+03
     -5.705  0.2102E+02  0.2192E+03
     -5.611  0.0000E+00  0.2235E+03
     -5.517  0.0000E+00  0.2239E+03
     -5.422  0.6177E+00  0.2240E+03
     -5.328  0.0000E+00  0.2240E+03
     -5.233  0.0000E+00  0.2240E+03
     -5.139  0.0000E+00  0.2240E+03
     -5.044  0.0000E+00  0.2240E+03
     -4.950  0.0000E+00  0.2240E+03
     -4.855  0.0000E+00  0.2240E+03
     -4.761  0.0000E+00  0.2240E+03
     -4.666  0.0000E+00  0.2240E+03
     -4.572  0.0000E+00  0.2240E+03
     -4.477  0.0000E+00  0.2240E+03
     -4.383  0.0000E+00  0.2240E+03
     -4.289  0.0000E+00  0.2240E+03
     -4.194  0.0000E+00  0.2240E+03
     -4.100  0.0000E+00  0.2240E+03
     -4.005  0.0000E+00  0.2240E+03
     -3.911  0.0000E+00  0.2240E+03
     -3.816  0.0000E+00  0.2240E+03
     -3.722  0.0000E+00  0.2240E+03
     -3.627  0.0000E+00  0.2240E+03
     -3.533  0.3337E+02  0.2376E+03
     -3.438  0.0000E+00  0.2560E+03
     -3.344  0.0000E+00  0.2560E+03
     -3.249  0.0000E+00  0.2560E+03
     -3.155  0.0000E+00  0.2560E+03
     -3.061  0.0000E+00  0.2560E+03
     -2.966  0.0000E+00  0.2560E+03
     -2.872  0.0000E+00  0.2560E+03
     -2.777  0.0000E+00  0.2560E+03
     -2.683  0.0000E+00  0.2560E+03
     -2.588  0.0000E+00  0.2560E+03
     -2.494  0.0000E+00  0.2560E+03
     -2.399  0.0000E+00  0.2560E+03
     -2.305  0.0000E+00  0.2560E+03
     -2.210  0.0000E+00  0.2560E+03
     -2.116  0.3369E-01  0.2560E+03
     -2.021  0.2932E+01  0.2582E+03
     -1.927  0.5444E+01  0.2610E+03
     -1.833  0.5396E+00  0.2632E+03
     -1.738  0.4402E+01  0.2657E+03
     -1.644  0.3033E+01  0.2684E+03
     -1.549  0.3137E+01  0.2719E+03
     -1.455  0.3185E+01  0.2751E+03
     -1.360  0.0000E+00  0.2785E+03
     -1.266  0.4782E-12  0.2796E+03
     -1.171  0.0000E+00  0.2800E+03
     -1.077  0.0000E+00  0.2800E+03
     -0.982  0.2144E+01  0.2809E+03
     -0.888  0.6273E+01  0.2850E+03
     -0.793  0.3517E+01  0.2915E+03
     -0.699  0.6816E-01  0.2958E+03
     -0.604  0.5602E+01  0.3019E+03
     -0.510  0.4408E+01  0.3048E+03
     -0.416  0.3811E+01  0.3085E+03
     -0.321  0.5867E+01  0.3137E+03
     -0.227  0.6265E+01  0.3204E+03
     -0.132  0.5700E+01  0.3268E+03
     -0.038  0.2927E-02  0.3324E+03
      0.057  0.2379E+01  0.3391E+03
      0.151  0.9410E+01  0.3478E+03
      0.246  0.1212E+02  0.3571E+03
      0.340  0.3489E+01  0.3640E+03
      0.435  0.9374E+01  0.3709E+03
      0.529  0.6238E+01  0.3804E+03
      0.624  0.4245E+01  0.3863E+03
      0.718  0.4622E+01  0.3921E+03
      0.812  0.3137E+01  0.3960E+03
      0.907  0.3012E+01  0.3978E+03
      1.001  0.1568E+01  0.3993E+03
      1.096  0.0000E+00  0.3993E+03
      1.190  0.0000E+00  0.3998E+03
      1.285  0.0000E+00  0.3999E+03
      1.379  0.0000E+00  0.4000E+03
      1.474  0.0000E+00  0.4000E+03
      1.568  0.0000E+00  0.4000E+03
      1.663  0.0000E+00  0.4000E+03
      1.757  0.0000E+00  0.4000E+03
      1.852  0.0000E+00  0.4000E+03
      1.946  0.0000E+00  0.4000E+03
      2.040  0.0000E+00  0.4000E+03
      2.135  0.0000E+00  0.4000E+03
      2.229  0.0000E+00  0.4000E+03
      2.324  0.0000E+00  0.4000E+03
      2.418  0.0000E+00  0.4000E+03
      2.513  0.0000E+00  0.4000E+03
      2.607  0.0000E+00  0.4000E+03
      2.702  0.0000E+00  0.4000E+03
      2.796  0.0000E+00  0.4000E+03
      2.891  0.0000E+00  0.4000E+03
      2.985  0.1310E+01  0.4002E+03
      3.080  0.0000E+00  0.4007E+03
      3.174  0.0000E+00  0.4012E+03
      3.268  0.0000E+00  0.4029E+03
      3.363  0.0000E+00  0.4036E+03
      3.457  0.0000E+00  0.4056E+03
      3.552  0.1151E+00  0.4066E+03
      3.646  0.0000E+00  0.4077E+03
      3.741  0.1567E+01  0.4083E+03
      3.835  0.0000E+00  0.4090E+03
      3.930  0.1076E+01  0.4097E+03
      4.024  0.0000E+00  0.4108E+03
      4.119  0.4705E+01  0.4135E+03
      4.213  0.3148E+01  0.4153E+03
      4.308  0.1438E-02  0.4173E+03
      4.402  0.7840E+01  0.4204E+03
      4.497  0.0000E+00  0.4227E+03
      4.591  0.0000E+00  0.4239E+03
      4.685  0.1541E+01  0.4240E+03
      4.780  0.0000E+00  0.4240E+03
      4.874  0.0000E+00  0.4240E+03
      4.969  0.0000E+00  0.4240E+03
      5.063  0.0000E+00  0.4241E+03
      5.158  0.1461E+01  0.4244E+03
      5.252  0.3137E+01  0.4260E+03
      5.347  0.4705E+01  0.4284E+03
      5.441  0.2850E+01  0.4317E+03
      5.536  0.2258E+01  0.4353E+03
      5.630  0.1569E+01  0.4384E+03
      5.725  0.3137E+01  0.4406E+03
      5.819  0.9731E+00  0.4422E+03
      5.913  0.1861E+01  0.4448E+03
      6.008  0.1568E+01  0.4480E+03
      6.102  0.2852E+01  0.4512E+03
      6.197  0.5795E+01  0.4560E+03
      6.291  0.1362E+01  0.4595E+03
      6.386  0.3337E+01  0.4627E+03
      6.480  0.4705E+01  0.4667E+03
      6.575  0.3329E-09  0.4726E+03
      6.669  0.4232E+01  0.4770E+03
      6.764  0.3554E+01  0.4800E+03
      6.858  0.4697E+01  0.4844E+03
      6.953  0.3910E-02  0.4873E+03
      7.047  0.1193E+01  0.4901E+03
      7.141  0.3048E+01  0.4952E+03
      7.236  0.1568E+01  0.5005E+03
      7.330  0.2352E+01  0.5037E+03
      7.425  0.6044E+01  0.5093E+03
      7.519  0.4741E+01  0.5115E+03
      7.614  0.0000E+00  0.5120E+03
      7.708  0.0000E+00  0.5120E+03
      7.803  0.0000E+00  0.5120E+03
      7.897  0.0000E+00  0.5120E+03
      7.992  0.0000E+00  0.5120E+03
      8.086  0.0000E+00  0.5120E+03
      8.181  0.0000E+00  0.5120E+03
      8.275  0.0000E+00  0.5120E+03
      8.369  0.0000E+00  0.5120E+03
      8.464  0.0000E+00  0.5120E+03
      8.558  0.0000E+00  0.5120E+03
      8.653  0.0000E+00  0.5120E+03
      8.747  0.0000E+00  0.5120E+03
      8.842  0.0000E+00  0.5120E+03
