       N       E                     dE             d eps       ncg     rms          rms(c)
DAV:   1     0.359866141064E+04    0.35987E+04   -0.18944E+05  7176   0.170E+03
DAV:   2     0.202694821743E+03   -0.33960E+04   -0.31997E+04  7944   0.354E+02
DAV:   3    -0.397800100162E+03   -0.60049E+03   -0.59134E+03  9480   0.172E+02
DAV:   4    -0.438454777722E+03   -0.40655E+02   -0.40478E+02  9664   0.490E+01
DAV:   5    -0.439979066481E+03   -0.15243E+01   -0.15220E+01  9784   0.918E+00    0.295E+01
DAV:   6    -0.419549262021E+03    0.20430E+02   -0.41323E+01  9704   0.103E+01    0.156E+01
DAV:   7    -0.417088647717E+03    0.24606E+01   -0.14580E+01 10248   0.638E+00    0.780E+00
DAV:   8    -0.416919148282E+03    0.16950E+00   -0.30692E+00  8552   0.319E+00    0.183E+00
DAV:   9    -0.416845699821E+03    0.73448E-01   -0.75593E-01  9416   0.177E+00    0.719E-01
DAV:  10    -0.416857401817E+03   -0.11702E-01   -0.11031E-01  8936   0.590E-01    0.465E-01
DAV:  11    -0.416857194431E+03    0.20739E-03   -0.14461E-02  9976   0.278E-01    0.197E-01
DAV:  12    -0.416858571446E+03   -0.13770E-02   -0.88912E-03  9776   0.151E-01    0.104E-01
DAV:  13    -0.416858739076E+03   -0.16763E-03   -0.12864E-03  8376   0.767E-02    0.730E-02
DAV:  14    -0.416858773577E+03   -0.34501E-04   -0.28203E-04  8536   0.288E-02    0.327E-02
DAV:  15    -0.416858817283E+03   -0.43706E-04   -0.15309E-04  8296   0.205E-02    0.122E-02
DAV:  16    -0.416858820875E+03   -0.35919E-05   -0.12828E-05 10760   0.671E-03    0.121E-02
DAV:  17    -0.416858820781E+03    0.93867E-07   -0.32725E-06  8424   0.320E-03    0.573E-03
DAV:  18    -0.416858820752E+03    0.29231E-07   -0.90357E-06 10160   0.480E-03    0.366E-03
DAV:  19    -0.416858820768E+03   -0.16786E-07   -0.89548E-07  8760   0.211E-03    0.252E-03
DAV:  20    -0.416858820760E+03    0.81418E-08   -0.47775E-07  9384   0.108E-03    0.382E-04
DAV:  21    -0.416858820800E+03   -0.39920E-07   -0.43827E-08  8888   0.469E-04    0.286E-04
DAV:  22    -0.416858820794E+03    0.62646E-08   -0.37116E-09  8232   0.180E-04    0.199E-04
DAV:  23    -0.416858820796E+03   -0.17935E-08    0.10489E-09  8936   0.931E-05    0.201E-04
DAV:  24    -0.416858820792E+03    0.38526E-08    0.13565E-09  7336   0.589E-05    0.181E-04
DAV:  25    -0.416858820792E+03    0.24374E-09    0.19649E-09  6456   0.382E-05    0.187E-04
DAV:  26    -0.416858820793E+03   -0.11605E-08    0.16132E-09  4480   0.282E-05    0.182E-04
DAV:  27    -0.416858820795E+03   -0.21137E-08    0.18594E-09  5088   0.323E-05    0.180E-04
DAV:  28    -0.416858820795E+03    0.36380E-10    0.18247E-09  4256   0.208E-05    0.179E-04
DAV:  29    -0.416858820795E+03    0.22555E-09    0.14276E-09  4256   0.122E-05    0.179E-04
DAV:  30    -0.416858820794E+03    0.17826E-09    0.16841E-09  4256   0.908E-06    0.179E-04
DAV:  31    -0.416858820794E+03    0.28376E-09    0.16184E-09  4240   0.808E-06    0.179E-04
DAV:  32    -0.416858820794E+03   -0.76398E-10    0.10852E-09  4216   0.531E-06    0.179E-04
DAV:  33    -0.416858820794E+03    0.13097E-09    0.14701E-09  4208   0.419E-06    0.179E-04
DAV:  34    -0.416858820794E+03   -0.20009E-09    0.14432E-09  4200   0.236E-06    0.179E-04
DAV:  35    -0.416858820794E+03    0.11642E-09    0.14049E-09  4184   0.180E-06    0.179E-04
DAV:  36    -0.416858820794E+03    0.72760E-10    0.14577E-09  4160   0.134E-06    0.179E-04
DAV:  37    -0.416858820794E+03   -0.43656E-10    0.14840E-09  4072   0.242E-06    0.179E-04
DAV:  38    -0.416858820794E+03    0.41837E-09    0.16193E-09  4024   0.634E-06    0.179E-04
DAV:  39    -0.416858820794E+03   -0.22555E-09    0.19047E-09  4000   0.373E-06    0.179E-04
DAV:  40    -0.416858820794E+03    0.32742E-10    0.19084E-09  3992   0.211E-06    0.179E-04
DAV:  41    -0.416858820794E+03   -0.41109E-09    0.19194E-09  3976   0.165E-06    0.179E-04
DAV:  42    -0.416858820794E+03    0.21100E-09    0.19029E-09  3968   0.241E-06    0.179E-04
DAV:  43    -0.416858820794E+03    0.43656E-09    0.19746E-09  3968   0.345E-06    0.179E-04
DAV:  44    -0.416858820794E+03   -0.30923E-09    0.18920E-09  3968   0.584E-07    0.179E-04
DAV:  45    -0.416858820794E+03   -0.10550E-09    0.19113E-09  3952   0.331E-06    0.179E-04
DAV:  46    -0.416858820794E+03   -0.13824E-09    0.18062E-09  3944   0.385E-06    0.179E-04
DAV:  47    -0.416858820794E+03   -0.25466E-10    0.16352E-09  3944   0.410E-06    0.179E-04
DAV:  48    -0.416858820794E+03   -0.90949E-10    0.12996E-09  3928   0.299E-06    0.179E-04
DAV:  49    -0.416858820794E+03   -0.76398E-10    0.11858E-09  3920   0.313E-06    0.179E-04
DAV:  50    -0.416858820794E+03    0.12369E-09    0.10111E-09  3920   0.251E-06    0.179E-04
DAV:  51    -0.416858820794E+03    0.32742E-10    0.11189E-09  3920   0.183E-06    0.179E-04
DAV:  52    -0.416858820794E+03   -0.83674E-10    0.11112E-09  3920   0.145E-06    0.179E-04
DAV:  53    -0.416858820794E+03    0.43656E-10    0.11198E-09  3920   0.895E-07    0.179E-04
DAV:  54    -0.416858820794E+03   -0.13824E-09    0.11033E-09  3920   0.772E-07    0.179E-04
DAV:  55    -0.416858820794E+03    0.18190E-09    0.11482E-09  3920   0.918E-07    0.179E-04
DAV:  56    -0.416858820794E+03   -0.10914E-10    0.12038E-09  3920   0.949E-07    0.179E-04
DAV:  57    -0.416858820794E+03   -0.61846E-10    0.12779E-09  3920   0.841E-07    0.179E-04
DAV:  58    -0.416858820795E+03   -0.15280E-09    0.13467E-09  3920   0.573E-07    0.179E-04
DAV:  59    -0.416858820794E+03    0.87311E-10    0.13572E-09  3920   0.570E-07    0.179E-04
DAV:  60    -0.416858820794E+03    0.14552E-10    0.12947E-09  3920   0.552E-07
   1 F= -.41685882E+03 E0= -.41685882E+03  d E =0.000000E+00
