   2   2   1   0
  0.3405476E+02  0.4583961E-09  0.4583961E-09  0.4583961E-09  0.5000000E-15
  1.000000000000000E-004
  CAR 
 Name                                    
     15.75112404    -10.13529831  301      2.31175644      1.00000000
    -10.135  0.0000E+00  0.0000E+00
    -10.049  0.0000E+00  0.0000E+00
     -9.963  0.0000E+00  0.0000E+00
     -9.876  0.0000E+00  0.0000E+00
     -9.790  0.0000E+00  0.0000E+00
     -9.704  0.0000E+00  0.0000E+00
     -9.618  0.0000E+00  0.0000E+00
     -9.531  0.0000E+00  0.0000E+00
     -9.445  0.0000E+00  0.0000E+00
     -9.359  0.0000E+00  0.0000E+00
     -9.272  0.0000E+00  0.0000E+00
     -9.186  0.0000E+00  0.0000E+00
     -9.100  0.0000E+00  0.0000E+00
     -9.014  0.4348E-15  0.3752E-16
     -8.927  0.1073E+00  0.9259E-02
     -8.841  0.8244E+00  0.8039E-01
     -8.755  0.6434E+00  0.1389E+00
     -8.668  0.1288E+01  0.2500E+00
     -8.582  0.3434E+01  0.5463E+00
     -8.496  0.7611E+01  0.1203E+01
     -8.410  0.6609E+01  0.1876E+01
     -8.323  0.1438E+01  0.2000E+01
     -8.237  0.0000E+00  0.2000E+01
     -8.151  0.0000E+00  0.2000E+01
     -8.064  0.0000E+00  0.2000E+01
     -7.978  0.0000E+00  0.2000E+01
     -7.892  0.0000E+00  0.2000E+01
     -7.806  0.0000E+00  0.2000E+01
     -7.719  0.0000E+00  0.2000E+01
     -7.633  0.0000E+00  0.2000E+01
     -7.547  0.0000E+00  0.2000E+01
     -7.460  0.0000E+00  0.2000E+01
     -7.374  0.0000E+00  0.2000E+01
     -7.288  0.0000E+00  0.2000E+01
     -7.202  0.0000E+00  0.2000E+01
     -7.115  0.0000E+00  0.2000E+01
     -7.029  0.0000E+00  0.2000E+01
     -6.943  0.0000E+00  0.2000E+01
     -6.856  0.0000E+00  0.2000E+01
     -6.770  0.0000E+00  0.2000E+01
     -6.684  0.0000E+00  0.2000E+01
     -6.597  0.0000E+00  0.2000E+01
     -6.511  0.0000E+00  0.2000E+01
     -6.425  0.0000E+00  0.2000E+01
     -6.339  0.0000E+00  0.2000E+01
     -6.252  0.0000E+00  0.2000E+01
     -6.166  0.0000E+00  0.2000E+01
     -6.080  0.0000E+00  0.2000E+01
     -5.993  0.0000E+00  0.2000E+01
     -5.907  0.0000E+00  0.2000E+01
     -5.821  0.4121E+00  0.2036E+01
     -5.735  0.2438E+02  0.4142E+01
     -5.648  0.2053E+02  0.6208E+01
     -5.562  0.1905E+02  0.7866E+01
     -5.476  0.2555E+02  0.1052E+02
     -5.389  0.3500E+00  0.1058E+02
     -5.303  0.3650E-01  0.1061E+02
     -5.217  0.5513E+01  0.1108E+02
     -5.131  0.4919E+01  0.1151E+02
     -5.044  0.4201E+01  0.1189E+02
     -4.958  0.1272E+01  0.1200E+02
     -4.872  0.0000E+00  0.1200E+02
     -4.785  0.0000E+00  0.1200E+02
     -4.699  0.0000E+00  0.1200E+02
     -4.613  0.0000E+00  0.1200E+02
     -4.527  0.0000E+00  0.1200E+02
     -4.440  0.0000E+00  0.1200E+02
     -4.354  0.0000E+00  0.1200E+02
     -4.268  0.0000E+00  0.1200E+02
     -4.181  0.0000E+00  0.1200E+02
     -4.095  0.0000E+00  0.1200E+02
     -4.009  0.0000E+00  0.1200E+02
     -3.923  0.0000E+00  0.1200E+02
     -3.836  0.0000E+00  0.1200E+02
     -3.750  0.0000E+00  0.1200E+02
     -3.664  0.0000E+00  0.1200E+02
     -3.577  0.0000E+00  0.1200E+02
     -3.491  0.0000E+00  0.1200E+02
     -3.405  0.0000E+00  0.1200E+02
     -3.319  0.0000E+00  0.1200E+02
     -3.232  0.0000E+00  0.1200E+02
     -3.146  0.0000E+00  0.1200E+02
     -3.060  0.0000E+00  0.1200E+02
     -2.973  0.0000E+00  0.1200E+02
     -2.887  0.0000E+00  0.1200E+02
     -2.801  0.0000E+00  0.1200E+02
     -2.715  0.0000E+00  0.1200E+02
     -2.628  0.0000E+00  0.1200E+02
     -2.542  0.0000E+00  0.1200E+02
     -2.456  0.0000E+00  0.1200E+02
     -2.369  0.0000E+00  0.1200E+02
     -2.283  0.5401E-08  0.1200E+02
     -2.197  0.4292E+00  0.1204E+02
     -2.111  0.1229E+00  0.1205E+02
     -2.024  0.2036E+01  0.1224E+02
     -1.938  0.3588E+01  0.1271E+02
     -1.852  0.2575E+01  0.1295E+02
     -1.765  0.1506E+00  0.1297E+02
     -1.679  0.2425E+01  0.1318E+02
     -1.593  0.1401E+00  0.1319E+02
     -1.506  0.2435E+01  0.1340E+02
     -1.420  0.3301E-07  0.1340E+02
     -1.334  0.8585E+00  0.1347E+02
     -1.248  0.6393E+00  0.1353E+02
     -1.161  0.0000E+00  0.1353E+02
     -1.075  0.0000E+00  0.1353E+02
     -0.989  0.0000E+00  0.1353E+02
     -0.902  0.2531E+01  0.1375E+02
     -0.816  0.0000E+00  0.1375E+02
     -0.730  0.0000E+00  0.1375E+02
     -0.644  0.0000E+00  0.1375E+02
     -0.557  0.7614E-12  0.1375E+02
     -0.471  0.1288E+01  0.1386E+02
     -0.385  0.1288E+01  0.1397E+02
     -0.298  0.0000E+00  0.1397E+02
     -0.212  0.5197E-04  0.1397E+02
     -0.126  0.2575E+01  0.1419E+02
     -0.040  0.7474E-07  0.1419E+02
      0.047  0.2074E+01  0.1437E+02
      0.133  0.2088E+01  0.1471E+02
      0.219  0.0000E+00  0.1486E+02
      0.306  0.6508E-11  0.1486E+02
      0.392  0.6438E+00  0.1492E+02
      0.478  0.3536E+01  0.1522E+02
      0.564  0.8429E+00  0.1534E+02
      0.651  0.5150E+01  0.1594E+02
      0.737  0.1191E+01  0.1604E+02
      0.823  0.0000E+00  0.1605E+02
      0.910  0.2160E+01  0.1623E+02
      0.996  0.1287E+01  0.1649E+02
      1.082  0.2939E-02  0.1649E+02
      1.168  0.5148E+01  0.1694E+02
      1.255  0.2575E+01  0.1716E+02
      1.341  0.0000E+00  0.1716E+02
      1.427  0.4061E-01  0.1716E+02
      1.514  0.3393E+01  0.1745E+02
      1.600  0.2857E-06  0.1745E+02
      1.686  0.3005E+01  0.1771E+02
      1.772  0.0000E+00  0.1771E+02
      1.859  0.2086E-09  0.1771E+02
      1.945  0.1288E+01  0.1782E+02
      2.031  0.1306E+01  0.1794E+02
      2.118  0.0000E+00  0.1797E+02
      2.204  0.1608E-15  0.1797E+02
      2.290  0.3219E+00  0.1800E+02
      2.376  0.0000E+00  0.1800E+02
      2.463  0.0000E+00  0.1800E+02
      2.549  0.0000E+00  0.1800E+02
      2.635  0.0000E+00  0.1800E+02
      2.722  0.0000E+00  0.1800E+02
      2.808  0.0000E+00  0.1800E+02
      2.894  0.5339E-01  0.1800E+02
      2.980  0.0000E+00  0.1801E+02
      3.067  0.0000E+00  0.1801E+02
      3.153  0.0000E+00  0.1801E+02
      3.239  0.0000E+00  0.1801E+02
      3.326  0.0000E+00  0.1801E+02
      3.412  0.0000E+00  0.1801E+02
      3.498  0.0000E+00  0.1801E+02
      3.585  0.0000E+00  0.1801E+02
      3.671  0.0000E+00  0.1801E+02
      3.757  0.0000E+00  0.1801E+02
      3.843  0.0000E+00  0.1801E+02
      3.930  0.2322E-05  0.1801E+02
      4.016  0.9241E+00  0.1809E+02
      4.102  0.8584E+00  0.1819E+02
      4.189  0.0000E+00  0.1819E+02
      4.275  0.0000E+00  0.1819E+02
      4.361  0.0000E+00  0.1819E+02
      4.447  0.0000E+00  0.1819E+02
      4.534  0.0000E+00  0.1819E+02
      4.620  0.4646E-15  0.1819E+02
      4.706  0.7703E+00  0.1826E+02
      4.793  0.6910E-07  0.1828E+02
      4.879  0.2190E+01  0.1847E+02
      4.965  0.4297E+01  0.1884E+02
      5.051  0.5078E+01  0.1935E+02
      5.138  0.5004E-15  0.1936E+02
      5.224  0.1288E+01  0.1947E+02
      5.310  0.6364E+00  0.1953E+02
      5.397  0.0000E+00  0.1953E+02
      5.483  0.0000E+00  0.1953E+02
      5.569  0.0000E+00  0.1953E+02
      5.655  0.0000E+00  0.1953E+02
      5.742  0.4864E-01  0.1953E+02
      5.828  0.2554E+01  0.1975E+02
      5.914  0.7938E+01  0.2044E+02
      6.001  0.0000E+00  0.2047E+02
      6.087  0.0000E+00  0.2047E+02
      6.173  0.2740E-01  0.2047E+02
      6.259  0.2571E+01  0.2070E+02
      6.346  0.2552E+01  0.2092E+02
      6.432  0.0000E+00  0.2092E+02
      6.518  0.0000E+00  0.2092E+02
      6.605  0.0000E+00  0.2092E+02
      6.691  0.0000E+00  0.2092E+02
      6.777  0.2867E+01  0.2116E+02
      6.863  0.4059E+01  0.2152E+02
      6.950  0.0000E+00  0.2157E+02
      7.036  0.7480E-12  0.2157E+02
      7.122  0.4247E+01  0.2194E+02
      7.209  0.0000E+00  0.2194E+02
      7.295  0.1200E+01  0.2205E+02
      7.381  0.2272E+01  0.2225E+02
      7.467  0.4166E+01  0.2261E+02
      7.554  0.0000E+00  0.2261E+02
      7.640  0.2407E+00  0.2263E+02
      7.726  0.6418E+00  0.2278E+02
      7.813  0.2294E+01  0.2303E+02
      7.899  0.2727E+01  0.2329E+02
      7.985  0.2424E+01  0.2350E+02
      8.071  0.1826E-06  0.2350E+02
      8.158  0.2575E+01  0.2372E+02
      8.244  0.2778E-11  0.2372E+02
      8.330  0.2575E+01  0.2394E+02
      8.417  0.8584E+00  0.2402E+02
      8.503  0.2301E+01  0.2422E+02
      8.589  0.0000E+00  0.2424E+02
      8.676  0.2384E-10  0.2424E+02
      8.762  0.2575E+01  0.2446E+02
      8.848  0.1256E+01  0.2457E+02
      8.934  0.0000E+00  0.2457E+02
      9.021  0.7604E+00  0.2464E+02
      9.107  0.4285E+00  0.2472E+02
      9.193  0.4286E+01  0.2517E+02
      9.280  0.1492E-04  0.2517E+02
      9.366  0.6438E+00  0.2522E+02
      9.452  0.2576E+01  0.2544E+02
      9.538  0.7505E+00  0.2551E+02
      9.625  0.3532E+01  0.2581E+02
      9.711  0.1288E+01  0.2595E+02
      9.797  0.0000E+00  0.2595E+02
      9.884  0.2882E+01  0.2620E+02
      9.970  0.0000E+00  0.2629E+02
     10.056  0.2546E+01  0.2651E+02
     10.142  0.3377E+01  0.2680E+02
     10.229  0.0000E+00  0.2681E+02
     10.315  0.9547E-05  0.2681E+02
     10.401  0.2575E+01  0.2703E+02
     10.488  0.8073E-03  0.2703E+02
     10.574  0.8576E+00  0.2710E+02
     10.660  0.4252E+01  0.2747E+02
     10.746  0.3558E+00  0.2750E+02
     10.833  0.0000E+00  0.2751E+02
     10.919  0.9089E-01  0.2752E+02
     11.005  0.2806E+01  0.2776E+02
     11.092  0.1717E+01  0.2791E+02
     11.178  0.2040E+01  0.2808E+02
     11.264  0.2576E+01  0.2835E+02
     11.350  0.3862E+01  0.2869E+02
     11.437  0.0000E+00  0.2869E+02
     11.523  0.1133E-13  0.2869E+02
     11.609  0.2146E+00  0.2870E+02
     11.696  0.2134E-12  0.2870E+02
     11.782  0.1288E+01  0.2881E+02
     11.868  0.1516E+01  0.2895E+02
     11.954  0.3328E+01  0.2940E+02
     12.041  0.0000E+00  0.2943E+02
     12.127  0.1418E+01  0.2955E+02
     12.213  0.0000E+00  0.2965E+02
     12.300  0.0000E+00  0.2965E+02
     12.386  0.5517E-10  0.2965E+02
     12.472  0.3571E+01  0.2996E+02
     12.558  0.7737E+00  0.3022E+02
     12.645  0.5122E+01  0.3067E+02
     12.731  0.0000E+00  0.3067E+02
     12.817  0.0000E+00  0.3067E+02
     12.904  0.2570E+01  0.3089E+02
     12.990  0.9168E-11  0.3089E+02
     13.076  0.3219E+00  0.3092E+02
     13.162  0.0000E+00  0.3092E+02
     13.249  0.1992E-04  0.3092E+02
     13.335  0.1288E+01  0.3103E+02
     13.421  0.2554E+01  0.3125E+02
     13.508  0.1135E+01  0.3135E+02
     13.594  0.1191E-01  0.3136E+02
     13.680  0.5139E+01  0.3181E+02
     13.766  0.3213E+00  0.3183E+02
     13.853  0.0000E+00  0.3183E+02
     13.939  0.0000E+00  0.3183E+02
     14.025  0.3574E-16  0.3183E+02
     14.112  0.6438E+00  0.3189E+02
     14.198  0.0000E+00  0.3189E+02
     14.284  0.5992E-04  0.3189E+02
     14.371  0.1288E+01  0.3200E+02
     14.457  0.0000E+00  0.3200E+02
     14.543  0.0000E+00  0.3200E+02
     14.629  0.0000E+00  0.3200E+02
     14.716  0.0000E+00  0.3200E+02
     14.802  0.0000E+00  0.3200E+02
     14.888  0.0000E+00  0.3200E+02
     14.975  0.0000E+00  0.3200E+02
     15.061  0.0000E+00  0.3200E+02
     15.147  0.0000E+00  0.3200E+02
     15.233  0.0000E+00  0.3200E+02
     15.320  0.0000E+00  0.3200E+02
     15.406  0.0000E+00  0.3200E+02
     15.492  0.0000E+00  0.3200E+02
     15.579  0.0000E+00  0.3200E+02
     15.665  0.0000E+00  0.3200E+02
     15.751  0.0000E+00  0.3200E+02
     15.75112404    -10.13529831  301      2.31175644      1.00000000
    -10.135  0.0000E+00  0.0000E+00  0.0000E+00
    -10.049  0.0000E+00  0.0000E+00  0.0000E+00
     -9.963  0.0000E+00  0.0000E+00  0.0000E+00
     -9.876  0.0000E+00  0.0000E+00  0.0000E+00
     -9.790  0.0000E+00  0.0000E+00  0.0000E+00
     -9.704  0.0000E+00  0.0000E+00  0.0000E+00
     -9.618  0.0000E+00  0.0000E+00  0.0000E+00
     -9.531  0.0000E+00  0.0000E+00  0.0000E+00
     -9.445  0.0000E+00  0.0000E+00  0.0000E+00
     -9.359  0.0000E+00  0.0000E+00  0.0000E+00
     -9.272  0.0000E+00  0.0000E+00  0.0000E+00
     -9.186  0.0000E+00  0.0000E+00  0.0000E+00
     -9.100  0.0000E+00  0.0000E+00  0.0000E+00
     -9.014  0.2747E-16  0.2424E-27  0.1140E-26
     -8.927  0.6779E-02  0.5982E-13  0.2813E-12
     -8.841  0.4396E-01  0.2074E-02  0.1279E-01
     -8.755  0.3210E-01  0.2181E-02  0.1356E-01
     -8.668  0.4974E-01  0.7704E-02  0.5433E-01
     -8.582  0.1050E+00  0.2658E-01  0.2009E+00
     -8.496  0.1175E+00  0.8238E-01  0.7064E+00
     -8.410  0.2897E-01  0.8640E-01  0.7870E+00
     -8.323  0.1879E-12  0.2006E-01  0.1868E+00
     -8.237  0.0000E+00  0.0000E+00  0.0000E+00
     -8.151  0.0000E+00  0.0000E+00  0.0000E+00
     -8.064  0.0000E+00  0.0000E+00  0.0000E+00
     -7.978  0.0000E+00  0.0000E+00  0.0000E+00
     -7.892  0.0000E+00  0.0000E+00  0.0000E+00
     -7.806  0.0000E+00  0.0000E+00  0.0000E+00
     -7.719  0.0000E+00  0.0000E+00  0.0000E+00
     -7.633  0.0000E+00  0.0000E+00  0.0000E+00
     -7.547  0.0000E+00  0.0000E+00  0.0000E+00
     -7.460  0.0000E+00  0.0000E+00  0.0000E+00
     -7.374  0.0000E+00  0.0000E+00  0.0000E+00
     -7.288  0.0000E+00  0.0000E+00  0.0000E+00
     -7.202  0.0000E+00  0.0000E+00  0.0000E+00
     -7.115  0.0000E+00  0.0000E+00  0.0000E+00
     -7.029  0.0000E+00  0.0000E+00  0.0000E+00
     -6.943  0.0000E+00  0.0000E+00  0.0000E+00
     -6.856  0.0000E+00  0.0000E+00  0.0000E+00
     -6.770  0.0000E+00  0.0000E+00  0.0000E+00
     -6.684  0.0000E+00  0.0000E+00  0.0000E+00
     -6.597  0.0000E+00  0.0000E+00  0.0000E+00
     -6.511  0.0000E+00  0.0000E+00  0.0000E+00
     -6.425  0.0000E+00  0.0000E+00  0.0000E+00
     -6.339  0.0000E+00  0.0000E+00  0.0000E+00
     -6.252  0.0000E+00  0.0000E+00  0.0000E+00
     -6.166  0.0000E+00  0.0000E+00  0.0000E+00
     -6.080  0.0000E+00  0.0000E+00  0.0000E+00
     -5.993  0.0000E+00  0.0000E+00  0.0000E+00
     -5.907  0.0000E+00  0.0000E+00  0.0000E+00
     -5.821  0.2419E-14  0.1773E-03  0.3713E+00
     -5.735  0.1084E-01  0.1199E-01  0.2216E+02
     -5.648  0.4869E-02  0.1168E-01  0.1888E+02
     -5.562  0.2757E-01  0.8728E-03  0.1767E+02
     -5.476  0.3020E-01  0.1700E-02  0.2395E+02
     -5.389  0.3693E-02  0.4434E-03  0.2958E+00
     -5.303  0.3817E-03  0.5140E-04  0.3080E-01
     -5.217  0.5596E-01  0.8834E-02  0.4635E+01
     -5.131  0.3113E-01  0.1313E-01  0.4109E+01
     -5.044  0.1527E-01  0.1362E-01  0.3496E+01
     -4.958  0.5504E-15  0.5532E-02  0.1050E+01
     -4.872  0.0000E+00  0.0000E+00  0.0000E+00
     -4.785  0.0000E+00  0.0000E+00  0.0000E+00
     -4.699  0.0000E+00  0.0000E+00  0.0000E+00
     -4.613  0.0000E+00  0.0000E+00  0.0000E+00
     -4.527  0.0000E+00  0.0000E+00  0.0000E+00
     -4.440  0.0000E+00  0.0000E+00  0.0000E+00
     -4.354  0.0000E+00  0.0000E+00  0.0000E+00
     -4.268  0.0000E+00  0.0000E+00  0.0000E+00
     -4.181  0.0000E+00  0.0000E+00  0.0000E+00
     -4.095  0.0000E+00  0.0000E+00  0.0000E+00
     -4.009  0.0000E+00  0.0000E+00  0.0000E+00
     -3.923  0.0000E+00  0.0000E+00  0.0000E+00
     -3.836  0.0000E+00  0.0000E+00  0.0000E+00
     -3.750  0.0000E+00  0.0000E+00  0.0000E+00
     -3.664  0.0000E+00  0.0000E+00  0.0000E+00
     -3.577  0.0000E+00  0.0000E+00  0.0000E+00
     -3.491  0.0000E+00  0.0000E+00  0.0000E+00
     -3.405  0.0000E+00  0.0000E+00  0.0000E+00
     -3.319  0.0000E+00  0.0000E+00  0.0000E+00
     -3.232  0.0000E+00  0.0000E+00  0.0000E+00
     -3.146  0.0000E+00  0.0000E+00  0.0000E+00
     -3.060  0.0000E+00  0.0000E+00  0.0000E+00
     -2.973  0.0000E+00  0.0000E+00  0.0000E+00
     -2.887  0.0000E+00  0.0000E+00  0.0000E+00
     -2.801  0.0000E+00  0.0000E+00  0.0000E+00
     -2.715  0.0000E+00  0.0000E+00  0.0000E+00
     -2.628  0.0000E+00  0.0000E+00  0.0000E+00
     -2.542  0.0000E+00  0.0000E+00  0.0000E+00
     -2.456  0.0000E+00  0.0000E+00  0.0000E+00
     -2.369  0.0000E+00  0.0000E+00  0.0000E+00
     -2.283  0.8963E-09  0.1419E-09  0.5059E-12
     -2.197  0.7123E-01  0.1128E-01  0.4020E-04
     -2.111  0.3016E-01  0.1269E-13  0.4220E-02
     -2.024  0.4168E+00  0.3126E-01  0.2527E-01
     -1.938  0.8439E+00  0.3019E-01  0.3006E-01
     -1.852  0.6060E+00  0.1041E-01  0.8427E-01
     -1.765  0.2643E-01  0.3323E-02  0.3972E-02
     -1.679  0.4256E+00  0.5350E-01  0.6396E-01
     -1.593  0.2906E-01  0.1610E-02  0.5534E-02
     -1.506  0.5051E+00  0.2799E-01  0.9620E-01
     -1.420  0.4779E-08  0.9263E-09  0.1391E-08
     -1.334  0.1243E+00  0.2409E-01  0.3616E-01
     -1.248  0.1313E+00  0.4079E-02  0.4162E-01
     -1.161  0.0000E+00  0.0000E+00  0.0000E+00
     -1.075  0.0000E+00  0.0000E+00  0.0000E+00
     -0.989  0.0000E+00  0.0000E+00  0.0000E+00
     -0.902  0.4122E+00  0.5025E-01  0.1449E+00
     -0.816  0.0000E+00  0.0000E+00  0.0000E+00
     -0.730  0.0000E+00  0.0000E+00  0.0000E+00
     -0.644  0.0000E+00  0.0000E+00  0.0000E+00
     -0.557  0.1149E-12  0.1655E-13  0.4582E-13
     -0.471  0.1942E+00  0.2799E-01  0.7750E-01
     -0.385  0.6241E-02  0.9256E-01  0.3849E-01
     -0.298  0.0000E+00  0.0000E+00  0.0000E+00
     -0.212  0.8767E-06  0.3533E-05  0.1737E-05
     -0.126  0.4344E-01  0.1751E+00  0.8607E-01
     -0.040  0.1741E-09  0.5127E-08  0.2995E-08
      0.047  0.7951E-02  0.1471E+00  0.7238E-01
      0.133  0.1102E-01  0.1655E+00  0.3904E-01
      0.219  0.0000E+00  0.0000E+00  0.0000E+00
      0.306  0.8447E-27  0.5246E-12  0.1214E-12
      0.392  0.3480E-08  0.5190E-01  0.1201E-01
      0.478  0.2064E+00  0.1796E+00  0.1666E+00
      0.564  0.2983E-01  0.5009E-01  0.3644E-01
      0.651  0.3341E-02  0.3920E+00  0.1552E+00
      0.737  0.5961E-16  0.8932E-01  0.3897E-01
      0.823  0.0000E+00  0.0000E+00  0.0000E+00
      0.910  0.5410E-02  0.1536E+00  0.8410E-01
      0.996  0.1742E-01  0.8093E-01  0.6150E-01
      1.082  0.6663E-04  0.1710E-03  0.1471E-03
      1.168  0.5833E-01  0.3275E+00  0.2381E+00
      1.255  0.1135E-13  0.1696E+00  0.1226E+00
      1.341  0.0000E+00  0.0000E+00  0.0000E+00
      1.427  0.9210E-17  0.2529E-02  0.2069E-02
      1.514  0.1120E-14  0.2111E+00  0.1724E+00
      1.600  0.1157E-21  0.1597E-07  0.1652E-07
      1.686  0.9026E-15  0.1656E+00  0.1780E+00
      1.772  0.0000E+00  0.0000E+00  0.0000E+00
      1.859  0.2672E-25  0.9721E-11  0.1382E-10
      1.945  0.1649E-15  0.5999E-01  0.8531E-01
      2.031  0.3378E-15  0.5206E-01  0.9483E-01
      2.118  0.0000E+00  0.0000E+00  0.0000E+00
      2.204  0.2103E-29  0.4386E-17  0.1319E-16
      2.290  0.4209E-14  0.8780E-02  0.2639E-01
      2.376  0.0000E+00  0.0000E+00  0.0000E+00
      2.463  0.0000E+00  0.0000E+00  0.0000E+00
      2.549  0.0000E+00  0.0000E+00  0.0000E+00
      2.635  0.0000E+00  0.0000E+00  0.0000E+00
      2.722  0.0000E+00  0.0000E+00  0.0000E+00
      2.808  0.0000E+00  0.0000E+00  0.0000E+00
      2.894  0.1632E-01  0.2958E-15  0.4496E-15
      2.980  0.0000E+00  0.0000E+00  0.0000E+00
      3.067  0.0000E+00  0.0000E+00  0.0000E+00
      3.153  0.0000E+00  0.0000E+00  0.0000E+00
      3.239  0.0000E+00  0.0000E+00  0.0000E+00
      3.326  0.0000E+00  0.0000E+00  0.0000E+00
      3.412  0.0000E+00  0.0000E+00  0.0000E+00
      3.498  0.0000E+00  0.0000E+00  0.0000E+00
      3.585  0.0000E+00  0.0000E+00  0.0000E+00
      3.671  0.0000E+00  0.0000E+00  0.0000E+00
      3.757  0.0000E+00  0.0000E+00  0.0000E+00
      3.843  0.0000E+00  0.0000E+00  0.0000E+00
      3.930  0.5674E-06  0.7164E-07  0.2306E-07
      4.016  0.2106E+00  0.2916E-01  0.6946E-02
      4.102  0.2021E+00  0.3338E-01  0.4805E-02
      4.189  0.0000E+00  0.0000E+00  0.0000E+00
      4.275  0.0000E+00  0.0000E+00  0.0000E+00
      4.361  0.0000E+00  0.0000E+00  0.0000E+00
      4.447  0.0000E+00  0.0000E+00  0.0000E+00
      4.534  0.0000E+00  0.0000E+00  0.0000E+00
      4.620  0.9340E-16  0.3961E-17  0.7478E-17
      4.706  0.1294E+00  0.1756E-01  0.1503E-01
      4.793  0.1428E-07  0.3527E-12  0.2719E-08
      4.879  0.4189E+00  0.9101E-01  0.3302E-01
      4.965  0.6850E+00  0.1952E+00  0.9896E-01
      5.051  0.1026E+01  0.1917E+00  0.6663E-01
      5.138  0.6805E-16  0.2772E-16  0.1363E-16
      5.224  0.1751E+00  0.7134E-01  0.3507E-01
      5.310  0.5702E-01  0.3348E-01  0.1801E-01
      5.397  0.0000E+00  0.0000E+00  0.0000E+00
      5.483  0.0000E+00  0.0000E+00  0.0000E+00
      5.569  0.0000E+00  0.0000E+00  0.0000E+00
      5.655  0.0000E+00  0.0000E+00  0.0000E+00
      5.742  0.1156E-01  0.5193E-03  0.8164E-03
      5.828  0.6013E+00  0.3138E-01  0.4251E-01
      5.914  0.1084E+01  0.3749E+00  0.1956E+00
      6.001  0.0000E+00  0.0000E+00  0.0000E+00
      6.087  0.0000E+00  0.0000E+00  0.0000E+00
      6.173  0.1243E-02  0.3482E-02  0.3441E-03
      6.259  0.1156E+00  0.3265E+00  0.3265E-01
      6.346  0.8805E-03  0.2881E+00  0.7065E-01
      6.432  0.0000E+00  0.0000E+00  0.0000E+00
      6.518  0.0000E+00  0.0000E+00  0.0000E+00
      6.605  0.0000E+00  0.0000E+00  0.0000E+00
      6.691  0.0000E+00  0.0000E+00  0.0000E+00
      6.777  0.1848E-02  0.2520E+00  0.9344E-01
      6.863  0.1398E+00  0.3962E+00  0.1029E+00
      6.950  0.0000E+00  0.0000E+00  0.0000E+00
      7.036  0.1095E-13  0.6577E-13  0.2275E-13
      7.122  0.3769E-01  0.6087E+00  0.8920E-01
      7.209  0.0000E+00  0.0000E+00  0.0000E+00
      7.295  0.1306E+00  0.2390E-01  0.1706E-01
      7.381  0.2164E-14  0.4458E+00  0.4134E-01
      7.467  0.2362E-03  0.5251E+00  0.1141E+00
      7.554  0.0000E+00  0.0000E+00  0.0000E+00
      7.640  0.7956E-03  0.2745E-01  0.4886E-02
      7.726  0.2429E-15  0.1348E+00  0.7513E-02
      7.813  0.1541E-12  0.3964E+00  0.5431E-01
      7.899  0.8342E-02  0.2547E+00  0.8982E-01
      7.985  0.1154E+00  0.2435E+00  0.3998E-01
      8.071  0.6261E-21  0.2669E-07  0.5822E-08
      8.158  0.8831E-14  0.3765E+00  0.8212E-01
      8.244  0.4071E-26  0.4911E-12  0.6170E-13
      8.330  0.3800E-14  0.4553E+00  0.5720E-01
      8.417  0.2927E-01  0.4760E-01  0.1341E-01
      8.503  0.7985E-01  0.1466E+00  0.5507E-01
      8.589  0.0000E+00  0.0000E+00  0.0000E+00
      8.676  0.5019E-12  0.1917E-11  0.7219E-12
      8.762  0.5422E-01  0.2071E+00  0.7798E-01
      8.848  0.3442E-14  0.1707E+00  0.3129E-01
      8.934  0.0000E+00  0.0000E+00  0.0000E+00
      9.021  0.4639E-13  0.1185E+00  0.1556E-01
      9.107  0.1683E-01  0.3484E-01  0.1017E-01
      9.193  0.1028E+00  0.3193E+00  0.1302E+00
      9.280  0.7307E-08  0.1043E-06  0.9612E-06
      9.366  0.3152E-03  0.4499E-02  0.4146E-01
      9.452  0.6902E-03  0.2659E+00  0.9856E-01
      9.538  0.5444E-01  0.2865E-02  0.2213E-01
      9.625  0.4584E-02  0.6155E+00  0.9292E-01
      9.711  0.2219E-14  0.2363E+00  0.2449E-01
      9.797  0.0000E+00  0.0000E+00  0.0000E+00
      9.884  0.4378E-14  0.3602E+00  0.9725E-01
      9.970  0.0000E+00  0.0000E+00  0.0000E+00
     10.056  0.3005E-01  0.1816E+00  0.1075E+00
     10.142  0.6960E-01  0.3756E+00  0.1152E+00
     10.229  0.0000E+00  0.0000E+00  0.0000E+00
     10.315  0.1199E-06  0.3302E-06  0.3961E-06
     10.401  0.3236E-01  0.8908E-01  0.1069E+00
     10.488  0.9636E-04  0.4880E-04  0.3148E-05
     10.574  0.1024E+00  0.5184E-01  0.3344E-02
     10.660  0.7559E-09  0.1185E+00  0.3020E+00
     10.746  0.4121E-01  0.3174E-03  0.7123E-04
     10.833  0.0000E+00  0.0000E+00  0.0000E+00
     10.919  0.8435E-03  0.6832E-02  0.2583E-02
     11.005  0.4810E-01  0.1868E+00  0.7241E-01
     11.092  0.4004E-07  0.6999E-01  0.1080E+00
     11.178  0.8771E-03  0.1598E+00  0.1119E+00
     11.264  0.5334E-01  0.2427E+00  0.6279E-01
     11.350  0.1689E+00  0.5012E+00  0.5552E-01
     11.437  0.0000E+00  0.0000E+00  0.0000E+00
     11.523  0.8235E-23  0.4042E-22  0.1136E-14
     11.609  0.1561E-09  0.7664E-09  0.2152E-01
     11.696  0.4541E-15  0.3074E-13  0.7331E-14
     11.782  0.2740E-02  0.1854E+00  0.4423E-01
     11.868  0.6113E-01  0.5127E-01  0.7353E-01
     11.954  0.1088E+00  0.1535E+00  0.1501E+00
     12.041  0.0000E+00  0.0000E+00  0.0000E+00
     12.127  0.8105E-01  0.4612E-01  0.3643E-01
     12.213  0.0000E+00  0.0000E+00  0.0000E+00
     12.300  0.0000E+00  0.0000E+00  0.0000E+00
     12.386  0.4767E-15  0.7329E-11  0.2854E-11
     12.472  0.2314E-01  0.3883E+00  0.1704E+00
     12.558  0.1766E-09  0.7546E-01  0.1748E-01
     12.645  0.5594E-03  0.3220E+00  0.2016E+00
     12.731  0.0000E+00  0.0000E+00  0.0000E+00
     12.817  0.0000E+00  0.0000E+00  0.0000E+00
     12.904  0.3768E-09  0.1997E+00  0.8063E-01
     12.990  0.9730E-21  0.9733E-18  0.5108E-18
     13.076  0.3417E-10  0.3418E-07  0.1794E-07
     13.162  0.0000E+00  0.0000E+00  0.0000E+00
     13.249  0.2787E-12  0.2981E-05  0.7576E-06
     13.335  0.1801E-07  0.1927E+00  0.4898E-01
     13.421  0.4537E-03  0.2807E+00  0.9062E-01
     13.508  0.6231E-02  0.8215E-02  0.7066E-01
     13.594  0.1754E-03  0.1355E-02  0.3722E-03
     13.680  0.4458E-01  0.6846E+00  0.1675E+00
     13.766  0.2424E-08  0.9351E-02  0.1947E-01
     13.853  0.0000E+00  0.0000E+00  0.0000E+00
     13.939  0.0000E+00  0.0000E+00  0.0000E+00
     14.025  0.2122E-17  0.6963E-17  0.2290E-18
     14.112  0.3822E-01  0.1254E+00  0.4124E-02
     14.198  0.0000E+00  0.0000E+00  0.0000E+00
     14.284  0.1517E-05  0.4548E-05  0.1530E-06
     14.371  0.3260E-01  0.9773E-01  0.3287E-02
     14.457  0.0000E+00  0.0000E+00  0.0000E+00
     14.543  0.0000E+00  0.0000E+00  0.0000E+00
     14.629  0.0000E+00  0.0000E+00  0.0000E+00
     14.716  0.0000E+00  0.0000E+00  0.0000E+00
     14.802  0.0000E+00  0.0000E+00  0.0000E+00
     14.888  0.0000E+00  0.0000E+00  0.0000E+00
     14.975  0.0000E+00  0.0000E+00  0.0000E+00
     15.061  0.0000E+00  0.0000E+00  0.0000E+00
     15.147  0.0000E+00  0.0000E+00  0.0000E+00
     15.233  0.0000E+00  0.0000E+00  0.0000E+00
     15.320  0.0000E+00  0.0000E+00  0.0000E+00
     15.406  0.0000E+00  0.0000E+00  0.0000E+00
     15.492  0.0000E+00  0.0000E+00  0.0000E+00
     15.579  0.0000E+00  0.0000E+00  0.0000E+00
     15.665  0.0000E+00  0.0000E+00  0.0000E+00
     15.751  0.0000E+00  0.0000E+00  0.0000E+00
     15.75112404    -10.13529831  301      2.31175644      1.00000000
    -10.135  0.0000E+00  0.0000E+00  0.0000E+00
    -10.049  0.0000E+00  0.0000E+00  0.0000E+00
     -9.963  0.0000E+00  0.0000E+00  0.0000E+00
     -9.876  0.0000E+00  0.0000E+00  0.0000E+00
     -9.790  0.0000E+00  0.0000E+00  0.0000E+00
     -9.704  0.0000E+00  0.0000E+00  0.0000E+00
     -9.618  0.0000E+00  0.0000E+00  0.0000E+00
     -9.531  0.0000E+00  0.0000E+00  0.0000E+00
     -9.445  0.0000E+00  0.0000E+00  0.0000E+00
     -9.359  0.0000E+00  0.0000E+00  0.0000E+00
     -9.272  0.0000E+00  0.0000E+00  0.0000E+00
     -9.186  0.0000E+00  0.0000E+00  0.0000E+00
     -9.100  0.0000E+00  0.0000E+00  0.0000E+00
     -9.014  0.2471E-15  0.3472E-27  0.3576E-27
     -8.927  0.6098E-01  0.8567E-13  0.8823E-13
     -8.841  0.4734E+00  0.1584E-03  0.1134E-05
     -8.755  0.3707E+00  0.1626E-03  0.2120E-06
     -8.668  0.7480E+00  0.3765E-03  0.4699E-05
     -8.582  0.2002E+01  0.9419E-03  0.1609E-04
     -8.496  0.4450E+01  0.1043E-02  0.4662E-04
     -8.410  0.3860E+01  0.2978E-03  0.1418E-04
     -8.323  0.8390E+00  0.2239E-08  0.8391E-06
     -8.237  0.0000E+00  0.0000E+00  0.0000E+00
     -8.151  0.0000E+00  0.0000E+00  0.0000E+00
     -8.064  0.0000E+00  0.0000E+00  0.0000E+00
     -7.978  0.0000E+00  0.0000E+00  0.0000E+00
     -7.892  0.0000E+00  0.0000E+00  0.0000E+00
     -7.806  0.0000E+00  0.0000E+00  0.0000E+00
     -7.719  0.0000E+00  0.0000E+00  0.0000E+00
     -7.633  0.0000E+00  0.0000E+00  0.0000E+00
     -7.547  0.0000E+00  0.0000E+00  0.0000E+00
     -7.460  0.0000E+00  0.0000E+00  0.0000E+00
     -7.374  0.0000E+00  0.0000E+00  0.0000E+00
     -7.288  0.0000E+00  0.0000E+00  0.0000E+00
     -7.202  0.0000E+00  0.0000E+00  0.0000E+00
     -7.115  0.0000E+00  0.0000E+00  0.0000E+00
     -7.029  0.0000E+00  0.0000E+00  0.0000E+00
     -6.943  0.0000E+00  0.0000E+00  0.0000E+00
     -6.856  0.0000E+00  0.0000E+00  0.0000E+00
     -6.770  0.0000E+00  0.0000E+00  0.0000E+00
     -6.684  0.0000E+00  0.0000E+00  0.0000E+00
     -6.597  0.0000E+00  0.0000E+00  0.0000E+00
     -6.511  0.0000E+00  0.0000E+00  0.0000E+00
     -6.425  0.0000E+00  0.0000E+00  0.0000E+00
     -6.339  0.0000E+00  0.0000E+00  0.0000E+00
     -6.252  0.0000E+00  0.0000E+00  0.0000E+00
     -6.166  0.0000E+00  0.0000E+00  0.0000E+00
     -6.080  0.0000E+00  0.0000E+00  0.0000E+00
     -5.993  0.0000E+00  0.0000E+00  0.0000E+00
     -5.907  0.0000E+00  0.0000E+00  0.0000E+00
     -5.821  0.3962E-13  0.9024E-02  0.3041E-03
     -5.735  0.9447E-02  0.4300E+00  0.2281E-01
     -5.648  0.2977E-02  0.2678E+00  0.2117E-01
     -5.562  0.3249E-01  0.7632E-01  0.1826E-01
     -5.476  0.7803E-01  0.3598E-01  0.1507E-01
     -5.389  0.1505E-01  0.2825E-02  0.4508E-03
     -5.303  0.1932E-02  0.3104E-03  0.2496E-04
     -5.217  0.3084E+00  0.4435E-01  0.3895E-02
     -5.131  0.3622E+00  0.1766E-01  0.3548E-02
     -5.044  0.3705E+00  0.7478E-02  0.1650E-02
     -4.958  0.1270E+00  0.7768E-04  0.4177E-03
     -4.872  0.0000E+00  0.0000E+00  0.0000E+00
     -4.785  0.0000E+00  0.0000E+00  0.0000E+00
     -4.699  0.0000E+00  0.0000E+00  0.0000E+00
     -4.613  0.0000E+00  0.0000E+00  0.0000E+00
     -4.527  0.0000E+00  0.0000E+00  0.0000E+00
     -4.440  0.0000E+00  0.0000E+00  0.0000E+00
     -4.354  0.0000E+00  0.0000E+00  0.0000E+00
     -4.268  0.0000E+00  0.0000E+00  0.0000E+00
     -4.181  0.0000E+00  0.0000E+00  0.0000E+00
     -4.095  0.0000E+00  0.0000E+00  0.0000E+00
     -4.009  0.0000E+00  0.0000E+00  0.0000E+00
     -3.923  0.0000E+00  0.0000E+00  0.0000E+00
     -3.836  0.0000E+00  0.0000E+00  0.0000E+00
     -3.750  0.0000E+00  0.0000E+00  0.0000E+00
     -3.664  0.0000E+00  0.0000E+00  0.0000E+00
     -3.577  0.0000E+00  0.0000E+00  0.0000E+00
     -3.491  0.0000E+00  0.0000E+00  0.0000E+00
     -3.405  0.0000E+00  0.0000E+00  0.0000E+00
     -3.319  0.0000E+00  0.0000E+00  0.0000E+00
     -3.232  0.0000E+00  0.0000E+00  0.0000E+00
     -3.146  0.0000E+00  0.0000E+00  0.0000E+00
     -3.060  0.0000E+00  0.0000E+00  0.0000E+00
     -2.973  0.0000E+00  0.0000E+00  0.0000E+00
     -2.887  0.0000E+00  0.0000E+00  0.0000E+00
     -2.801  0.0000E+00  0.0000E+00  0.0000E+00
     -2.715  0.0000E+00  0.0000E+00  0.0000E+00
     -2.628  0.0000E+00  0.0000E+00  0.0000E+00
     -2.542  0.0000E+00  0.0000E+00  0.0000E+00
     -2.456  0.0000E+00  0.0000E+00  0.0000E+00