    2    2    1    1
  0.3405476E+02  0.4583961E-09  0.4583961E-09  0.4583961E-09  0.5000000E-15
  1.000000000000000E-004
  CAR 
 Name                                    
     18   1204     16
 
  0.0000000E+00  0.0000000E+00  0.0000000E+00  0.4629630E-02
    1       -8.958643   1.000000
    2       -5.830269   1.000000
    3       -5.830269   1.000000
    4       -5.830269   1.000000
    5       -5.552486   1.000000
    6       -5.552486   1.000000
    7        2.260703   1.000000
    8        2.260703   1.000000
    9        2.260703   1.000000
   10        2.894245   0.000000
   11        6.766274   0.000000
   12        6.766274   0.000000
   13        6.766274   0.000000
   14        9.508640   0.000000
   15       11.575572   0.000000
   16       11.575573   0.000000
 
  0.1666667E+00  0.0000000E+00  0.0000000E+00  0.3703704E-01
    1       -8.853337   1.000000
    2       -5.810451   1.000000
    3       -5.810451   1.000000
    4       -5.751818   1.000000
    5       -5.553843   1.000000
    6       -5.553843   1.000000
    7        0.476580   1.000000
    8        2.026307   1.000000
    9        2.026307   1.000000
   10        4.014582   0.000000
   11        6.868363   0.000000
   12        7.108615   0.000000
   13        7.108615   0.000000
   14       10.509532   0.000000
   15       10.641961   0.000000
   16       10.641961   0.000000
 
  0.3333333E+00  0.0000000E+00  0.0000000E+00  0.3703704E-01
    1       -8.639222   1.000000
    2       -5.776358   1.000000
    3       -5.776358   1.000000
    4       -5.549703   1.000000
    5       -5.549703   1.000000
    6       -5.478808   1.000000
    7       -1.382201   1.000000
    8        1.636124   1.000000
    9        1.636124   1.000000
   10        4.072333   0.000000
   11        7.391447   0.000000
   12        7.391447   0.000000
   13        8.386626   0.000000
   14       10.131086   0.000000
   15       11.051923   0.000000
   16       11.051923   0.000000
 
  0.5000000E+00  0.0000000E+00  0.0000000E+00  0.1851852E-01
    1       -8.532175   1.000000
    2       -5.763135   1.000000
    3       -5.763135   1.000000
    4       -5.543087   1.000000
    5       -5.543087   1.000000
    6       -5.223379   1.000000
    7       -2.243683   1.000000
    8        1.467110   1.000000
    9        1.467110   1.000000
   10        3.960772   0.000000
   11        7.352785   0.000000
   12        7.352785   0.000000
   13        9.144443   0.000000
   14       10.739699   0.000000
   15       12.480181   0.000000
   16       12.480181   0.000000
 
  0.1666667E+00  0.1666667E+00  0.0000000E+00  0.2777778E-01
    1       -8.818483   1.000000
    2       -5.790408   1.000000
    3       -5.790408   1.000000
    4       -5.755202   1.000000
    5       -5.562131   1.000000
    6       -5.544345   1.000000
    7        0.474222   1.000000
    8        1.638462   1.000000
    9        1.638462   1.000000
   10        4.676373   0.000000
   11        5.840217   0.000000
   12        7.726361   0.000000
   13        7.726361   0.000000
   14        9.308321   0.000000
   15       11.286140   0.000000
   16       11.814907   0.000000
 
  0.3333333E+00  0.1666667E+00  0.0000000E+00  0.1111111E+00
    1       -8.641240   1.000000
    2       -5.764427   1.000000
    3       -5.751697   1.000000
    4       -5.615209   1.000000
    5       -5.538207   1.000000
    6       -5.497253   1.000000
    7       -0.917414   1.000000
    8        1.103724   1.000000
    9        1.221403   1.000000
   10        5.037908   0.000000
   11        6.189433   0.000000
   12        7.857383   0.000000
   13        8.293728   0.000000
   14       10.039966   0.000000
   15       11.872965   0.000000
   16       11.946061   0.000000
 
  0.5000000E+00  0.1666667E+00  0.0000000E+00  0.1111111E+00
    1       -8.500138   1.000000
    2       -5.748656   1.000000
    3       -5.735160   1.000000
    4       -5.570911   1.000000
    5       -5.539961   1.000000
    6       -5.202021   1.000000
    7       -2.025385   1.000000
    8        0.567588   1.000000
    9        1.138216   1.000000
   10        4.941010   0.000000
   11        6.845168   0.000000
   12        8.108700   0.000000
   13        8.723000   0.000000
   14       10.931778   0.000000
   15       12.126127   0.000000
   16       12.574908   0.000000
 
 -0.3333333E+00  0.1666667E+00  0.0000000E+00  0.1111111E+00
    1       -8.535037   1.000000
    2       -5.750007   1.000000
    3       -5.749639   1.000000
    4       -5.556563   1.000000
    5       -5.556226   1.000000
    6       -5.287663   1.000000
    7       -1.754270   1.000000
    8        0.429640   1.000000
    9        1.442508   1.000000
   10        4.998080   0.000000
   11        7.086975   0.000000
   12        7.803922   0.000000
   13        8.494120   0.000000
   14       10.644184   0.000000
   15       11.293483   0.000000
   16       12.476145   0.000000
 
 -0.1666667E+00  0.1666667E+00  0.0000000E+00  0.5555556E-01
    1       -8.711722   1.000000
    2       -5.787702   1.000000
    3       -5.772858   1.000000
    4       -5.626074   1.000000
    5       -5.563132   1.000000
    6       -5.532844   1.000000
    7       -0.507065   1.000000
    8        0.973209   1.000000
    9        1.903198   1.000000
   10        4.840382   0.000000
   11        6.839902   0.000000
   12        7.339441   0.000000
   13        7.646332   0.000000
   14        9.885656   0.000000
   15       11.119234   0.000000
   16       11.874626   0.000000
 
  0.3333333E+00  0.3333333E+00  0.0000000E+00  0.2777778E-01
    1       -8.537009   1.000000
    2       -5.703310   1.000000
    3       -5.703310   1.000000
    4       -5.657483   1.000000
    5       -5.528061   1.000000
    6       -5.390230   1.000000
    7       -1.264982   1.000000
    8        0.726822   1.000000
    9        0.726822   1.000000
   10        4.869700   0.000000
   11        5.294187   0.000000
   12        9.473865   0.000000
   13        9.683240   0.000000
   14        9.683240   0.000000
   15       12.477525   0.000000
   16       14.084562   0.000000
 
  0.5000000E+00  0.3333333E+00  0.0000000E+00  0.1111111E+00
    1       -8.433919   1.000000
    2       -5.703752   1.000000
    3       -5.680527   1.000000
    4       -5.625380   1.000000
    5       -5.529249   1.000000
    6       -5.140909   1.000000
    7       -1.901118   1.000000
    8        0.050291   1.000000
    9        0.591051   1.000000
   10        4.962025   0.000000
   11        5.861616   0.000000
   12        9.126870   0.000000
   13        9.873193   0.000000
   14       11.233848   0.000000
   15       12.883302   0.000000
   16       13.654115   0.000000
 
 -0.3333333E+00  0.3333333E+00  0.0000000E+00  0.5555556E-01
    1       -8.434073   1.000000
    2       -5.723945   1.000000
    3       -5.701114   1.000000
    4       -5.582868   1.000000
    5       -5.547822   1.000000
    6       -5.075666   1.000000
    7       -1.943544   1.000000
    8       -0.414034   1.000000
    9        0.906816   1.000000
   10        5.194658   0.000000
   11        7.284346   0.000000
   12        9.019036   0.000000
   13        9.135557   0.000000
   14        9.620061   0.000000
   15       11.176357   0.000000
   16       14.311860   0.000000
 
  0.5000000E+00  0.5000000E+00  0.0000000E+00  0.1388889E-01
    1       -8.399785   1.000000
    2       -5.670131   1.000000
    3       -5.655466   1.000000
    4       -5.655466   1.000000
    5       -5.519883   1.000000
    6       -5.095381   1.000000
    7       -2.108379   1.000000
    8        0.352966   1.000000
    9        0.352966   1.000000
   10        4.708172   0.000000
   11        4.828287   0.000000
   12       10.948273   0.000000
   13       11.298929   0.000000
   14       11.298930   0.000000
   15       13.036232   0.000000
   16       13.746218   0.000000
 
  0.5000000E+00  0.3333333E+00  0.1666667E+00  0.1111111E+00
    1       -8.502026   1.000000
    2       -5.728824   1.000000
    3       -5.721422   1.000000
    4       -5.599170   1.000000
    5       -5.539376   1.000000
    6       -5.265899   1.000000
    7       -1.581439   1.000000
    8        0.136475   1.000000
    9        0.909347   1.000000
   10        5.756396   0.000000
   11        6.276129   0.000000
   12        7.436634   0.000000
   13        9.577958   0.000000
   14       10.346664   0.000000
   15       12.432515   0.000000
   16       13.612326   0.000000
 
 -0.3333333E+00  0.3333333E+00  0.1666667E+00  0.1111111E+00
    1       -8.434072   1.000000
    2       -5.720962   1.000000
    3       -5.705524   1.000000
    4       -5.579472   1.000000
    5       -5.549987   1.000000
    6       -5.074631   1.000000
    7       -1.982056   1.000000
    8       -0.183140   1.000000
    9        0.619846   1.000000
   10        5.886430   0.000000
   11        6.758521   0.000000
   12        7.909971   0.000000
   13        9.421012   0.000000
   14       10.123447   0.000000
   15       12.623100   0.000000
   16       13.404353   0.000000
 
 -0.3333333E+00  0.5000000E+00  0.1666667E+00  0.5555556E-01
    1       -8.400960   1.000000
    2       -5.692749   1.000000
    3       -5.688838   1.000000
    4       -5.604726   1.000000
    5       -5.539380   1.000000
    6       -5.028378   1.000000
    7       -2.023334   1.000000
    8       -0.002120   1.000000
    9        0.081352   1.000000
   10        5.893579   0.000000
   11        5.910825   0.000000
   12        8.834213   0.000000
   13        9.110094   0.000000
   14       11.747068   0.000000
   15       13.278231   0.000000
   16       13.499280   0.000000
 
  0.0000000E+00  0.0000000E+00  0.0000000E+00  0.0000000E+00
    1       -8.958643   1.000000
    2       -5.830269   1.000000
    3       -5.830269   1.000000
    4       -5.830269   1.000000
    5       -5.552486   1.000000
    6       -5.552486   1.000000
    7        2.260703   1.000000
    8        2.260703   1.000000
    9        2.260703   1.000000
   10        2.894245   0.000000
   11        6.766274   0.000000
   12        6.766274   0.000000
   13        6.766274   0.000000
   14        9.508640   0.000000
   15       11.575572   0.000000
   16       11.575603   0.000000
 
  0.4208800E-03  0.0000000E+00  0.4208800E-03  0.0000000E+00
    1       -8.958642   1.000000
    2       -5.830269   1.000000
    3       -5.830269   1.000000
    4       -5.830269   1.000000
    5       -5.552486   1.000000
    6       -5.552485   1.000000
    7        2.260656   1.000000
    8        2.260698   1.000000
    9        2.260698   1.000000
   10        2.894293   0.000000
   11        6.766264   0.000000
   12        6.766281   0.000000
   13        6.766281   0.000000
   14        9.508655   0.000000
   15       11.575494   0.000000
   16       11.575574   0.000000
 
  0.8417500E-03  0.0000000E+00  0.8417500E-03  0.0000000E+00
    1       -8.958640   1.000000
    2       -5.830268   1.000000
    3       -5.830268   1.000000
    4       -5.830267   1.000000
    5       -5.552486   1.000000
    6       -5.552485   1.000000
    7        2.260513   1.000000
    8        2.260683   1.000000
    9        2.260683   1.000000
   10        2.894438   0.000000
   11        6.766233   0.000000
   12        6.766303   0.000000
   13        6.766303   0.000000
   14        9.508701   0.000000
   15       11.575261   0.000000
   16       11.575584   0.000000
 
  0.1262630E-02  0.0000000E+00  0.1262630E-02  0.0000000E+00
    1       -8.958635   1.000000
    2       -5.830267   1.000000
    3       -5.830267   1.000000
    4       -5.830265   1.000000
    5       -5.552486   1.000000
    6       -5.552485   1.000000
    7        2.260276   1.000000
    8        2.260657   1.000000
    9        2.260657   1.000000
   10        2.894679   0.000000
   11        6.766181   0.000000
   12        6.766339   0.000000
   13        6.766339   0.000000
   14        9.508778   0.000000
   15       11.574877   0.000000
   16       11.575589   0.000000
 
  0.1683500E-02  0.0000000E+00  0.1683500E-02  0.0000000E+00
    1       -8.958629   1.000000
    2       -5.830265   1.000000
    3       -5.830265   1.000000
    4       -5.830262   1.000000
    5       -5.552487   1.000000
    6       -5.552485   1.000000
    7        2.259945   1.000000
    8        2.260622   1.000000
    9        2.260622   1.000000
   10        2.895015   0.000000
   11        6.766108   0.000000
   12        6.766390   0.000000
   13        6.766390   0.000000
   14        9.508885   0.000000
   15       11.574354   0.000000
   16       11.575599   0.000000
 
  0.2104380E-02  0.0000000E+00  0.2104380E-02  0.0000000E+00
    1       -8.958620   1.000000
    2       -5.830262   1.000000
    3       -5.830262   1.000000
    4       -5.830258   1.000000
    5       -5.552488   1.000000
    6       -5.552484   1.000000
    7        2.259519   1.000000
    8        2.260576   1.000000
    9        2.260576   1.000000
   10        2.895448   0.000000
   11        6.766015   0.000000
   12        6.766455   0.000000
   13        6.766455   0.000000
   14        9.509022   0.000000
   15       11.573620   0.000000
   16       11.575611   0.000000
 
  0.2525250E-02  0.0000000E+00  0.2525250E-02  0.0000000E+00
    1       -8.958610   1.000000
    2       -5.830259   1.000000
    3       -5.830259   1.000000
    4       -5.830253   1.000000
    5       -5.552489   1.000000
    6       -5.552483   1.000000
    7        2.258999   1.000000
    8        2.260520   1.000000
    9        2.260520   1.000000
   10        2.895975   0.000000
   11        6.765901   0.000000
   12        6.766535   0.000000
   13        6.766535   0.000000
   14        9.509190   0.000000
   15       11.572764   0.000000
   16       11.575628   0.000000
 
  0.2946130E-02  0.0000000E+00  0.2946130E-02  0.0000000E+00
    1       -8.958598   1.000000
    2       -5.830255   1.000000
    3       -5.830255   1.000000
    4       -5.830247   1.000000
    5       -5.552490   1.000000
    6       -5.552483   1.000000
    7        2.258386   1.000000
    8        2.260453   1.000000
    9        2.260453   1.000000
   10        2.896598   0.000000
   11        6.765766   0.000000
   12        6.766629   0.000000
   13        6.766629   0.000000
   14        9.509389   0.000000
   15       11.571755   0.000000
   16       11.575647   0.000000
 
  0.3367000E-02  0.0000000E+00  0.3367000E-02  0.0000000E+00
    1       -8.958584   1.000000
    2       -5.830251   1.000000
    3       -5.830251   1.000000
    4       -5.830240   1.000000
    5       -5.552491   1.000000
    6       -5.552482   1.000000
    7        2.257680   1.000000
    8        2.260377   1.000000
    9        2.260377   1.000000
   10        2.897314   0.000000
   11        6.765611   0.000000
   12        6.766737   0.000000
   13        6.766738   0.000000
   14        9.509618   0.000000
   15       11.570595   0.000000
   16       11.575671   0.000000
 
  0.3787880E-02  0.0000000E+00  0.3787880E-02  0.0000000E+00
    1       -8.958567   1.000000
    2       -5.830247   1.000000
    3       -5.830246   1.000000
    4       -5.830232   1.000000
    5       -5.552493   1.000000
    6       -5.552481   1.000000
    7        2.256882   1.000000
    8        2.260290   1.000000
    9        2.260290   1.000000
   10        2.898124   0.000000
   11        6.765435   0.000000
   12        6.766860   0.000000
   13        6.766861   0.000000
   14        9.509877   0.000000
   15       11.569443   0.000000
   16       11.575723   0.000000
 
  0.4208750E-02  0.0000000E+00  0.4208750E-02  0.0000000E+00
    1       -8.958549   1.000000
    2       -5.830241   1.000000
    3       -5.830241   1.000000
    4       -5.830223   1.000000
    5       -5.552495   1.000000
    6       -5.552480   1.000000
    7        2.255992   1.000000
    8        2.260194   1.000000
    9        2.260194   1.000000
   10        2.899027   0.000000
   11        6.765238   0.000000
   12        6.766998   0.000000
   13        6.766998   0.000000
   14        9.510167   0.000000
   15       11.567843   0.000000
   16       11.575762   0.000000
 
  0.4629630E-02  0.0000000E+00  0.4629630E-02  0.0000000E+00
    1       -8.958529   1.000000
    2       -5.830236   1.000000
    3       -5.830235   1.000000
    4       -5.830214   1.000000
    5       -5.552497   1.000000
    6       -5.552478   1.000000
    7        2.255012   1.000000
    8        2.260087   1.000000
    9        2.260087   1.000000
   10        2.900023   0.000000
   11        6.765021   0.000000
   12        6.767150   0.000000
   13        6.767150   0.000000
   14        9.510488   0.000000
   15       11.566232   0.000000
   16       11.575765   0.000000
 
  0.5050510E-02  0.0000000E+00  0.5050510E-02  0.0000000E+00
    1       -8.958507   1.000000
    2       -5.830229   1.000000
    3       -5.830229   1.000000
    4       -5.830203   1.000000
    5       -5.552499   1.000000
    6       -5.552477   1.000000
    7        2.253941   1.000000
    8        2.259969   1.000000
    9        2.259969   1.000000
   10        2.901109   0.000000
   11        6.764783   0.000000
   12        6.767316   0.000000
   13        6.767317   0.000000
   14        9.510839   0.000000
   15       11.564476   0.000000
   16       11.575794   0.000000
 
  0.5471380E-02  0.0000000E+00  0.5471380E-02  0.0000000E+00
    1       -8.958483   1.000000
    2       -5.830222   1.000000
    3       -5.830222   1.000000
    4       -5.830192   1.000000
    5       -5.552502   1.000000
    6       -5.552476   1.000000
    7        2.252782   1.000000
    8        2.259842   1.000000
    9        2.259842   1.000000
   10        2.902286   0.000000
   11        6.764524   0.000000
   12        6.767497   0.000000
   13        6.767497   0.000000
   14        9.511220   0.000000
   15       11.562591   0.000000
   16       11.575834   0.000000
 
  0.5892260E-02  0.0000000E+00  0.5892260E-02  0.0000000E+00
    1       -8.958457   1.000000
    2       -5.830215   1.000000
    3       -5.830215   1.000000
    4       -5.830179   1.000000
    5       -5.552504   1.000000
    6       -5.552474   1.000000
    7        2.251535   1.000000
    8        2.259705   1.000000
    9        2.259705   1.000000
   10        2.903553   0.000000
   11        6.764245   0.000000
   12        6.767693   0.000000
   13        6.767693   0.000000
   14        9.511632   0.000000
   15       11.560556   0.000000
   16       11.575874   0.000000
 
  0.6313130E-02  0.0000000E+00  0.6313130E-02  0.0000000E+00
    1       -8.958429   1.000000
    2       -5.830207   1.000000
    3       -5.830207   1.000000
    4       -5.830166   1.000000
    5       -5.552507   1.000000
    6       -5.552472   1.000000
    7        2.250200   1.000000
    8        2.259557   1.000000
    9        2.259557   1.000000
   10        2.904907   0.000000
   11        6.763945   0.000000
   12        6.767902   0.000000
   13        6.767903   0.000000
   14        9.512074   0.000000
   15       11.558389   0.000000
   16       11.575919   0.000000
 
  0.6734010E-02  0.0000000E+00  0.6734010E-02  0.0000000E+00
    1       -8.958400   1.000000
    2       -5.830198   1.000000
    3       -5.830198   1.000000
    4       -5.830152   1.000000
    5       -5.552510   1.000000
    6       -5.552470   1.000000
    7        2.248780   1.000000
    8        2.259399   1.000000
    9        2.259399   1.000000
   10        2.906349   0.000000
   11        6.763625   0.000000
   12        6.768127   0.000000
   13        6.768127   0.000000
   14        9.512547   0.000000
   15       11.556096   0.000000
   16       11.575970   0.000000
 
  0.7154880E-02  0.0000000E+00  0.7154880E-02  0.0000000E+00
    1       -8.958368   1.000000
    2       -5.830189   1.000000
    3       -5.830189   1.000000
    4       -5.830137   1.000000
    5       -5.552513   1.000000
    6       -5.552469   1.000000
    7        2.247275   1.000000
    8        2.259231   1.000000
    9        2.259231   1.000000
   10        2.907877   0.000000
   11        6.763284   0.000000
   12        6.768366   0.000000
   13        6.768366   0.000000
   14        9.513050   0.000000
   15       11.553653   0.000000
   16       11.576018   0.000000
 
  0.7575760E-02  0.0000000E+00  0.7575760E-02  0.0000000E+00
    1       -8.958335   1.000000
    2       -5.830180   1.000000
    3       -5.830180   1.000000
    4       -5.830121   1.000000
    5       -5.552517   1.000000
    6       -5.552467   1.000000
    7        2.245686   1.000000
    8        2.259052   1.000000
    9        2.259052   1.000000
   10        2.909490   0.000000
   11        6.762922   0.000000
   12        6.768618   0.000000
   13        6.768618   0.000000
   14        9.513582   0.000000
   15       11.551090   0.000000
   16       11.576096   0.000000
 
  0.7996630E-02  0.0000000E+00  0.7996630E-02  0.0000000E+00
    1       -8.958299   1.000000
    2       -5.830170   1.000000
    3       -5.830170   1.000000
    4       -5.830104   1.000000
    5       -5.552521   1.000000
    6       -5.552464   1.000000
    7        2.244015   1.000000
    8        2.258863   1.000000
    9        2.258863   1.000000
   10        2.911187   0.000000
   11        6.762540   0.000000
   12        6.768885   0.000000
   13        6.768886   0.000000
   14        9.514146   0.000000
   15       11.548404   0.000000
   16       11.576130   0.000000
 
  0.8417510E-02  0.0000000E+00  0.8417510E-02  0.0000000E+00
    1       -8.958262   1.000000
    2       -5.830159   1.000000
    3       -5.830159   1.000000
    4       -5.830086   1.000000
    5       -5.552525   1.000000
    6       -5.552462   1.000000
    7        2.242262   1.000000
    8        2.258665   1.000000
    9        2.258665   1.000000
   10        2.912966   0.000000
   11        6.762137   0.000000
   12        6.769168   0.000000
   13        6.769168   0.000000
   14        9.514740   0.000000
   15       11.545585   0.000000
   16       11.576189   0.000000
 
  0.8838380E-02  0.0000000E+00  0.8838380E-02  0.0000000E+00
    1       -8.958222   1.000000
    2       -5.830148   1.000000
    3       -5.830148   1.000000
    4       -5.830068   1.000000
    5       -5.552529   1.000000
    6       -5.552460   1.000000
    7        2.240430   1.000000
    8        2.258456   1.000000
    9        2.258456   1.000000
   10        2.914827   0.000000
   11        6.761715   0.000000
   12        6.769464   0.000000
   13        6.769464   0.000000
   14        9.515364   0.000000
   15       11.542675   0.000000
   16       11.576256   0.000000
 
  0.9259260E-02  0.0000000E+00  0.9259260E-02  0.0000000E+00
    1       -8.958181   1.000000
    2       -5.830136   1.000000
    3       -5.830136   1.000000
    4       -5.830048   1.000000
    5       -5.552533   1.000000
    6       -5.552457   1.000000
    7        2.238520   1.000000
    8        2.258238   1.000000
    9        2.258238   1.000000
   10        2.916767   0.000000
   11        6.761271   0.000000
   12        6.769775   0.000000
   13        6.769775   0.000000
   14        9.516018   0.000000
   15       11.539597   0.000000
   16       11.576318   0.000000
 
  0.9680140E-02  0.0000000E+00  0.9680140E-02  0.0000000E+00
    1       -8.958137   1.000000
    2       -5.830124   1.000000
    3       -5.830124   1.000000
    4       -5.830028   1.000000
    5       -5.552537   1.000000
    6       -5.552455   1.000000
    7        2.236532   1.000000
    8        2.258009   1.000000
    9        2.258009   1.000000
   10        2.918786   0.000000
   11        6.760808   0.000000
   12        6.770100   0.000000
   13        6.770101   0.000000
   14        9.516702   0.000000
   15       11.536429   0.000000
   16       11.576388   0.000000
 
  0.1010101E-01  0.0000000E+00  0.1010101E-01  0.0000000E+00
    1       -8.958092   1.000000
    2       -5.830111   1.000000
    3       -5.830111   1.000000
    4       -5.830006   1.000000
    5       -5.552542   1.000000
    6       -5.552452   1.000000
    7        2.234468   1.000000
    8        2.257770   1.000000
    9        2.257770   1.000000
   10        2.920882   0.000000
   11        6.760324   0.000000
   12        6.770440   0.000000
   13        6.770440   0.000000
   14        9.517416   0.000000
   15       11.533154   0.000000
   16       11.576476   0.000000
 
  0.1052189E-01  0.0000000E+00  0.1052189E-01  0.0000000E+00
    1       -8.958044   1.000000
    2       -5.830098   1.000000
    3       -5.830098   1.000000
    4       -5.829984   1.000000
    5       -5.552547   1.000000
    6       -5.552449   1.000000
    7        2.232331   1.000000
    8        2.257521   1.000000
    9        2.257521   1.000000
   10        2.923054   0.000000
   11        6.759820   0.000000
   12        6.770794   0.000000
   13        6.770794   0.000000
   14        9.518161   0.000000
   15       11.529759   0.000000
   16       11.576537   0.000000
 
  0.1094276E-01  0.0000000E+00  0.1094276E-01  0.0000000E+00
    1       -8.957995   1.000000
    2       -5.830084   1.000000
    3       -5.830084   1.000000
    4       -5.829961   1.000000
    5       -5.552552   1.000000
    6       -5.552446   1.000000
    7        2.230120   1.000000
    8        2.257261   1.000000
    9        2.257261   1.000000
   10        2.925301   0.000000
   11        6.759295   0.000000
   12        6.771163   0.000000
   13        6.771163   0.000000
   14        9.518935   0.000000
   15       11.526261   0.000000
   16       11.576614   0.000000
 
  0.1136364E-01  0.0000000E+00  0.1136364E-01  0.0000000E+00
    1       -8.957944   1.000000
    2       -5.830070   1.000000
    3       -5.830069   1.000000
    4       -5.829936   1.000000
    5       -5.552557   1.000000
    6       -5.552443   1.000000
    7        2.227837   1.000000
    8        2.256992   1.000000
    9        2.256992   1.000000
   10        2.927620   0.000000
   11        6.758750   0.000000
   12        6.771546   0.000000
   13        6.771546   0.000000
   14        9.519740   0.000000
   15       11.522660   0.000000
   16       11.576696   0.000000
 
  0.1178451E-01  0.0000000E+00  0.1178451E-01  0.0000000E+00
    1       -8.957891   1.000000
    2       -5.830055   1.000000
    3       -5.830055   1.000000
    4       -5.829911   1.000000
    5       -5.552562   1.000000
    6       -5.552440   1.000000
    7        2.225485   1.000000
    8        2.256712   1.000000
    9        2.256712   1.000000
   10        2.930011   0.000000
   11        6.758186   0.000000
   12        6.771943   0.000000
   13        6.771943   0.000000
   14        9.520574   0.000000
   15       11.518960   0.000000
   16       11.576801   0.000000
 
  0.1220539E-01  0.0000000E+00  0.1220539E-01  0.0000000E+00
    1       -8.957836   1.000000
    2       -5.830039   1.000000
    3       -5.830039   1.000000
    4       -5.829885   1.000000
    5       -5.552568   1.000000
    6       -5.552437   1.000000
    7        2.223064   1.000000
    8        2.256423   1.000000
    9        2.256423   1.000000
   10        2.932471   0.000000
   11        6.757601   0.000000
   12        6.772355   0.000000
   13        6.772355   0.000000
   14        9.521439   0.000000
   15       11.515161   0.000000
   16       11.576874   0.000000
 
  0.1262626E-01  0.0000000E+00  0.1262626E-01  0.0000000E+00
    1       -8.957779   1.000000
    2       -5.830023   1.000000
    3       -5.830023   1.000000
    4       -5.829859   1.000000
    5       -5.552574   1.000000
    6       -5.552434   1.000000
    7        2.220575   1.000000
    8        2.256122   1.000000
    9        2.256122   1.000000
   10        2.935000   0.000000
   11        6.756995   0.000000
   12        6.772780   0.000000
   13        6.772780   0.000000
   14        9.522332   0.000000
   15       11.511266   0.000000
   16       11.576959   0.000000
 
  0.1304714E-01  0.0000000E+00  0.1304714E-01  0.0000000E+00
    1       -8.957720   1.000000
    2       -5.830007   1.000000
    3       -5.830007   1.000000
    4       -5.829831   1.000000
    5       -5.552580   1.000000
    6       -5.552430   1.000000
    7        2.218020   1.000000
    8        2.255812   1.000000
    9        2.255812   1.000000
   10        2.937597   0.000000
   11        6.756370   0.000000
   12        6.773221   0.000000
   13        6.773221   0.000000
   14        9.523256   0.000000
   15       11.507279   0.000000
   16       11.577054   0.000000
 
  0.1346801E-01  0.0000000E+00  0.1346801E-01  0.0000000E+00
    1       -8.957659   1.000000
    2       -5.829990   1.000000
    3       -5.829990   1.000000
    4       -5.829802   1.000000
    5       -5.552586   1.000000
    6       -5.552427   1.000000
    7        2.215402   1.000000
    8        2.255492   1.000000
    9        2.255492   1.000000
   10        2.940259   0.000000
   11        6.755725   0.000000
   12        6.773675   0.000000
   13        6.773676   0.000000
   14        9.524210   0.000000
   15       11.503233   0.000000
   16       11.577165   0.000000
 
  0.1388889E-01  0.0000000E+00  0.1388889E-01  0.0000000E+00
    1       -8.957596   1.000000
    2       -5.829972   1.000000
    3       -5.829972   1.000000
    4       -5.829772   1.000000
    5       -5.552592   1.000000
    6       -5.552423   1.000000
    7        2.212720   1.000000
    8        2.255163   1.000000
    9        2.255163   1.000000
   10        2.942986   0.000000
   11        6.755060   0.000000
   12        6.774145   0.000000
   13        6.774145   0.000000
   14        9.525193   0.000000
   15       11.499039   0.000000
   16       11.577254   0.000000
 
  0.1430976E-01  0.0000000E+00  0.1430976E-01  0.0000000E+00
    1       -8.957532   1.000000
    2       -5.829954   1.000000
    3       -5.829954   1.000000
    4       -5.829742   1.000000
    5       -5.552599   1.000000