       N       E                     dE             d eps       ncg     rms          rms(c)
DAV:   1     0.974782205187E+02    0.97478E+02   -0.82221E+03 38904   0.946E+02
DAV:   2    -0.200971773736E+01   -0.99488E+02   -0.94971E+02 44112   0.234E+02
DAV:   3    -0.546466589362E+01   -0.34549E+01   -0.34510E+01 48472   0.453E+01
DAV:   4    -0.549319914074E+01   -0.28533E-01   -0.28532E-01 58416   0.370E+00
DAV:   5    -0.549325692769E+01   -0.57787E-04   -0.57787E-04 51280   0.159E-01
DAV:   6    -0.549325797465E+01   -0.10470E-05   -0.10469E-05 57328   0.157E-02
DAV:   7    -0.549325799132E+01   -0.16674E-07   -0.16639E-07 43392   0.170E-03
   1 F= -.54932580E+01 E0= -.54932580E+01  d E =-.549326E+01
