 vasp.5.4.1 24Jun15 (build Nov 25 2015 16:01:35) complex                        
  
 executed on         CrayXC-Intel date 2016.09.08  17:45:30
 running on   96 total cores
 distrk:  each k-point on   24 cores,    4 groups
 distr:  one band on NCORES_PER_BAND=   6 cores,    4 groups


--------------------------------------------------------------------------------------------------------


 INCAR:
 POTCAR:    PAW_PBE Cd 06Sep2000                  
 POTCAR:    PAW_PBE Te 08Apr2002                  

 ----------------------------------------------------------------------------- 
|                                                                             |
|           W    W    AA    RRRRR   N    N  II  N    N   GGGG   !!!           |
|           W    W   A  A   R    R  NN   N  II  NN   N  G    G  !!!           |
|           W    W  A    A  R    R  N N  N  II  N N  N  G       !!!           |
|           W WW W  AAAAAA  RRRRR   N  N N  II  N  N N  G  GGG   !            |
|           WW  WW  A    A  R   R   N   NN  II  N   NN  G    G                |
|           W    W  A    A  R    R  N    N  II  N    N   GGGG   !!!           |
|                                                                             |
|      You have enabled k-point parallelism (KPAR>1).                         |
|      This developmental code was originally  written by Paul Kent at ORNL,  |
|      and carefully double checked in Vienna.                                |
|      GW as well as linear response parallelism added by Martijn Marsman     |
|      and Georg Kresse.                                                      |
|      Carefully verify results versus KPAR=1.                                |
|      Report problems to Paul Kent and Vienna.                               |
|                                                                             |
 ----------------------------------------------------------------------------- 

 POTCAR:    PAW_PBE Cd 06Sep2000                  
   VRHFIN =Cd : s2 d10                                                          
   LEXCH  = PE                                                                  
   EATOM  =  1293.1815 eV,   95.0462 Ry                                         
                                                                                
   TITEL  = PAW_PBE Cd 06Sep2000                                                
   LULTRA =        F    use ultrasoft PP ?                                      
   IUNSCR =        1    unscreen: 0-lin 1-nonlin 2-no                           
   RPACOR =    2.000    partial core radius                                     
   POMASS =  112.411; ZVAL   =   12.000    mass and valenz                      
   RCORE  =    2.300    outmost cutoff radius                                   
   RWIGS  =    2.980; RWIGS  =    1.577    wigner-seitz radius (au A)           
   ENMAX  =  274.336; ENMIN  =  205.752 eV                                      
   RCLOC  =    2.054    cutoff for local pot                                    
   LCOR   =        T    correct aug charges                                     
   LPAW   =        T    paw PP                                                  
   EAUG   =  456.106                                                            
   DEXC   =    0.000                                                            
   RMAX   =    2.358    core radius for proj-oper                               
   RAUG   =    1.300    factor for augmentation sphere                          
   RDEP   =    2.450    radius for radial grids                                 
   RDEPT  =    1.955    core radius for aug-charge                              
                                                                                
   Atomic configuration                                                         
   12 entries                                                                   
     n  l   j            E        occ.                                          
     1  0  0.50    -26519.7817   2.0000                                         
     2  0  0.50     -3936.9612   2.0000                                         
     2  1  1.50     -3532.2230   6.0000                                         
     3  0  0.50      -733.7908   2.0000                                         
     3  1  1.50      -601.0792   6.0000                                         
     3  2  2.50      -393.5307  10.0000                                         
     4  0  0.50      -105.8977   2.0000                                         
     4  1  1.50       -66.9488   6.0000                                         
     4  2  2.50       -11.7331  10.0000                                         
     5  0  0.50        -5.6592   2.0000                                         
     5  1  0.50        -1.3606   0.0000                                         
     4  3  2.50        -1.3606   0.0000                                         
   Description                                                                  
     l       E           TYP  RCUT    TYP  RCUT                                 
     2    -11.7331479     23  2.300                                             
     2    -13.0937305     23  2.300                                             
     0     -5.6591502     23  2.300                                             
     0     -1.5561433     23  2.300                                             
     1     -2.7211652     23  2.300                                             
     1      8.3548275     23  2.300                                             
  local pseudopotential read in
  partial core-charges read in
  partial kinetic energy density read in
  atomic valenz-charges read in
  non local Contribution for L=           2  read in
    real space projection operators read in
  non local Contribution for L=           2  read in
    real space projection operators read in
  non local Contribution for L=           0  read in
    real space projection operators read in
  non local Contribution for L=           0  read in
    real space projection operators read in
  non local Contribution for L=           1  read in
    real space projection operators read in
  non local Contribution for L=           1  read in
    real space projection operators read in
    PAW grid and wavefunctions read in
 
   number of l-projection  operators is LMAX  =           6
   number of lm-projection operators is LMMAX =          18
 
 POTCAR:    PAW_PBE Te 08Apr2002                  
   VRHFIN =Te: s2p4                                                             
   LEXCH  = PE                                                                  
   EATOM  =   223.2721 eV,   16.4100 Ry                                         
                                                                                
   TITEL  = PAW_PBE Te 08Apr2002                                                
   LULTRA =        F    use ultrasoft PP ?                                      
   IUNSCR =        1    unscreen: 0-lin 1-nonlin 2-no                           
   RPACOR =    2.200    partial core radius                                     
   POMASS =  127.600; ZVAL   =    6.000    mass and valenz                      
   RCORE  =    2.300    outmost cutoff radius                                   
   RWIGS  =    2.900; RWIGS  =    1.535    wigner-seitz radius (au A)           
   ENMAX  =  174.982; ENMIN  =  131.236 eV                                      
   ICORE  =        3    local potential                                         
   LCOR   =        T    correct aug charges                                     
   LPAW   =        T    paw PP                                                  
   EAUG   =  368.792                                                            
   DEXC   =    0.000                                                            
   RMAX   =    2.345    core radius for proj-oper                               
   RAUG   =    1.300    factor for augmentation sphere                          
   RDEP   =    2.397    radius for radial grids                                 
   RDEPT  =    2.174    core radius for aug-charge                              
                                                                                
   Atomic configuration                                                         
   13 entries                                                                   
     n  l   j            E        occ.                                          
     1  0  0.50    -31621.2075   2.0000                                         
     2  0  0.50     -4848.7941   2.0000                                         
     2  1  1.50     -4352.1960   6.0000                                         
     3  0  0.50      -964.9612   2.0000                                         
     3  1  1.50      -803.6179   6.0000                                         
     3  2  2.50      -559.8710  10.0000                                         
     4  0  0.50      -164.3522   2.0000                                         
     4  1  1.50      -114.3756   6.0000                                         
     4  2  2.50       -41.6483  10.0000                                         
     5  0  0.50       -15.1072   2.0000                                         
     5  1  0.50        -5.9526   4.0000                                         
     5  2  1.50        -5.4423   0.0000                                         
     4  3  2.50        -5.4423   0.0000                                         
   Description                                                                  
     l       E           TYP  RCUT    TYP  RCUT                                 
     0    -15.1072389     23  2.300                                             
     0    -16.4678215     23  2.300                                             
     1     -5.9526306     23  2.300                                             
     1     -2.4873968     23  2.300                                             
     2     -5.4423304     23  2.300                                             
     3     -1.3605826     23  2.300                                             
  local pseudopotential read in
  partial core-charges read in
  partial kinetic energy density read in
  atomic valenz-charges read in
  non local Contribution for L=           0  read in
    real space projection operators read in
  non local Contribution for L=           0  read in
    real space projection operators read in
  non local Contribution for L=           1  read in
    real space projection operators read in
  non local Contribution for L=           1  read in
    real space projection operators read in
  non local Contribution for L=           2  read in
    real space projection operators read in
    PAW grid and wavefunctions read in
 
   number of l-projection  operators is LMAX  =           5
   number of lm-projection operators is LMMAX =          13
 

 ----------------------------------------------------------------------------- 
|                                                                             |
|  ADVICE TO THIS USER RUNNING 'VASP/VAMP'   (HEAR YOUR MASTER'S VOICE ...):  |
|                                                                             |
|      You enforced a specific xc-type in the INCAR file,                     |
|      a different type was found on the POTCAR file                          |
|          I HOPE YOU KNOW, WHAT YOU ARE  DOING                               |
|                                                                             |
 ----------------------------------------------------------------------------- 

  PAW_PBE Cd 06Sep2000                  :
 energy of atom  1       EATOM=-1293.1815
 kinetic energy error for atom=    0.0063 (will be added to EATOM!!)
  PAW_PBE Te 08Apr2002                  :
 energy of atom  2       EATOM= -223.2721
 kinetic energy error for atom=    0.0007 (will be added to EATOM!!)
 
 
 POSCAR: CdTe (ICSD, 295K, Rabadanov 2001)       
  positions in direct lattice
  velocities in cartesian coordinates
 exchange correlation table for  LEXCH =       14
   RHO(1)=    0.500       N(1)  =     2000
   RHO(2)=  100.500       N(2)  =     4000
 


--------------------------------------------------------------------------------------------------------


 ion  position               nearest neighbor table
   1  0.000  0.000  0.000-   2 2.81   2 2.81   2 2.81   2 2.81
   2  0.250  0.250  0.250-   1 2.81   1 2.81   1 2.81   1 2.81
 
  LATTYP: Found a face centered cubic cell.
 ALAT       =     6.4827000000
  
  Lattice vectors:
  
 A1 = (   3.2413500000,   3.2413500000,   0.0000000000)
 A2 = (   3.2413500000,   0.0000000000,  -3.2413500000)
 A3 = (   0.0000000000,   3.2413500000,  -3.2413500000)


Analysis of symmetry for initial positions (statically):
=====================================================================
 Subroutine PRICEL returns:
 Original cell was already a primitive cell.
 

 Routine SETGRP: Setting up the symmetry group for a 
 face centered cubic supercell.


 Subroutine GETGRP returns: Found 24 space group operations
 (whereof 24 operations were pure point group operations)
 out of a pool of 48 trial point group operations.


The static configuration has the point symmetry T_d .


Analysis of symmetry for dynamics (positions and initial velocities):
=====================================================================
 Subroutine PRICEL returns:
 Original cell was already a primitive cell.
 

 Routine SETGRP: Setting up the symmetry group for a 
 face centered cubic supercell.


 Subroutine GETGRP returns: Found 24 space group operations
 (whereof 24 operations were pure point group operations)
 out of a pool of 48 trial point group operations.


The dynamic configuration has the point symmetry T_d .


 Subroutine INISYM returns: Found 24 space group operations
 (whereof 24 operations are pure point group operations),
 and found     1 'primitive' translations

 
 
 KPOINTS: Automatically generated mesh SCF: 16 ste
  k-points in reciprocal lattice
Space group operators:
 irot       det(A)        alpha          n_x          n_y          n_z        tau_x        tau_y        tau_z
    1     1.000000     0.000000     1.000000     0.000000     0.000000     0.000000     0.000000     0.000000
    2     1.000000   120.000000    -0.577350    -0.577350     0.577350     0.000000     0.000000     0.000000
    3     1.000000   120.000000     0.577350     0.577350    -0.577350     0.000000     0.000000     0.000000
    4    -1.000000    90.000000    -1.000000     0.000000     0.000000     0.000000     0.000000     0.000000
    5    -1.000000   180.000000     0.707107     0.707107     0.000000     0.000000     0.000000     0.000000
    6    -1.000000    90.000000     0.000000     1.000000     0.000000     0.000000     0.000000     0.000000
    7     1.000000   180.000000     1.000000     0.000000     0.000000     0.000000     0.000000     0.000000
    8     1.000000   120.000000     0.577350     0.577350     0.577350     0.000000     0.000000     0.000000
    9     1.000000   120.000000    -0.577350     0.577350     0.577350     0.000000     0.000000     0.000000
   10    -1.000000    90.000000     1.000000     0.000000     0.000000     0.000000     0.000000     0.000000
   11    -1.000000    90.000000     0.000000     0.000000     1.000000     0.000000     0.000000     0.000000
   12    -1.000000   180.000000     0.707107     0.000000    -0.707107     0.000000     0.000000     0.000000
   13     1.000000   120.000000     0.577350    -0.577350    -0.577350     0.000000     0.000000     0.000000
   14     1.000000   120.000000     0.577350    -0.577350     0.577350     0.000000     0.000000     0.000000
   15     1.000000   180.000000     0.000000     0.000000     1.000000     0.000000     0.000000     0.000000
   16    -1.000000    90.000000     0.000000    -1.000000     0.000000     0.000000     0.000000     0.000000
   17    -1.000000   180.000000     0.000000    -0.707107     0.707107     0.000000     0.000000     0.000000
   18    -1.000000    90.000000     0.000000     0.000000    -1.000000     0.000000     0.000000     0.000000
   19     1.000000   120.000000    -0.577350    -0.577350    -0.577350     0.000000     0.000000     0.000000
   20     1.000000   180.000000     0.000000     1.000000     0.000000     0.000000     0.000000     0.000000
   21     1.000000   120.000000    -0.577350     0.577350    -0.577350     0.000000     0.000000     0.000000
   22    -1.000000   180.000000     0.707107    -0.707107     0.000000     0.000000     0.000000     0.000000
   23    -1.000000   180.000000     0.000000     0.707107     0.707107     0.000000     0.000000     0.000000
   24    -1.000000   180.000000     0.707107     0.000000     0.707107     0.000000     0.000000     0.000000


--------------------------------------------------------------------------------------------------------




 Dimension of arrays:
   k-points           NKPTS =   1204   k-points in BZ     NKDIM =   1204   number of bands    NBANDS=     16
   number of dos      NEDOS =    301   number of ions     NIONS =      2
   non local maximal  LDIM  =      6   non local SUM 2l+1 LMDIM =     18
   total plane-waves  NPLWV =  46656
   max r-space proj   IRMAX =      1   max aug-charges    IRDMAX=  40037
   dimension x,y,z NGX =    36 NGY =   36 NGZ =   36
   dimension x,y,z NGXF=    72 NGYF=   72 NGZF=   72
   support grid    NGXF=    72 NGYF=   72 NGZF=   72
   ions per type =               1   1
 NGX,Y,Z   is equivalent  to a cutoff of  13.06, 13.06, 13.06 a.u.
 NGXF,Y,Z  is equivalent  to a cutoff of  26.11, 26.11, 26.11 a.u.


 I would recommend the setting:
   dimension x,y,z NGX =    33 NGY =   33 NGZ =   33
 SYSTEM =  Name                                    
 POSCAR =  CdTe (ICSD, 295K, Rabadanov 2001)       

 Startparameter for this run:
   NWRITE =      2    write-flag & timer
   PREC   = accura    normal or accurate (medium, high low for compatibility)
   ISTART =      0    job   : 0-new  1-cont  2-samecut
   ICHARG =     11    charge: 1-file 2-atom 10-const
   ISPIN  =      1    spin polarized calculation?
   LNONCOLLINEAR =      F non collinear calculations
   LSORBIT =      F    spin-orbit coupling
   INIWAV =      1    electr: 0-lowe 1-rand  2-diag
   LASPH  =      F    aspherical Exc in radial PAW
   METAGGA=      F    non-selfconsistent MetaGGA calc.

 Electronic Relaxation 1
   ENCUT  =  500.0 eV  36.75 Ry    6.06 a.u.   8.36  8.36  8.36*2*pi/ulx,y,z
   ENINI  =  500.0     initial cutoff
   ENAUG  =  456.1 eV  augmentation charge cutoff
   NELM   =     60;   NELMIN=  2; NELMDL=  0     # of ELM steps 
   EDIFF  = 0.1E-05   stopping-criterion for ELM
   LREAL  =      F    real-space projection
   NLSPLINE    = F    spline interpolate recip. space projectors
   LCOMPAT=      F    compatible to vasp.4.4
   GGA_COMPAT  = T    GGA compatible to vasp.4.4-vasp.4.6
   LMAXPAW     = -100 max onsite density
   LMAXMIX     =    2 max onsite mixed and CHGCAR
   VOSKOWN=      0    Vosko Wilk Nusair interpolation
   ROPT   =    0.00000   0.00000
 Ionic relaxation
   EDIFFG = -.5E-02   stopping-criterion for IOM
   NSW    =      1    number of steps for IOM
   NBLOCK =      1;   KBLOCK =      1    inner block; outer block 
   IBRION =      2    ionic relax: 0-MD 1-quasi-New 2-CG
   NFREE  =      1    steps in history (QN), initial steepest desc. (CG)
   ISIF   =      3    stress and relaxation
   IWAVPR =     11    prediction:  0-non 1-charg 2-wave 3-comb
   ISYM   =      2    0-nonsym 1-usesym 2-fastsym
   LCORR  =      T    Harris-Foulkes like correction to forces

   POTIM  = 0.5000    time-step for ionic-motion
   TEIN   =    0.0    initial temperature
   TEBEG  =    0.0;   TEEND  =   0.0 temperature during run
   SMASS  =  -3.00    Nose mass-parameter (am)
   estimated Nose-frequenzy (Omega)   =  0.10E-29 period in steps =****** mass=  -0.480E-27a.u.
   SCALEE = 1.0000    scale energy and forces
   NPACO  =    256;   APACO  = 16.0  distance and # of slots for P.C.
   PSTRESS=    0.0 pullay stress

  Mass of Ions in am
   POMASS = 112.41127.60
  Ionic Valenz
   ZVAL   =  12.00  6.00
  Atomic Wigner-Seitz radii
   RWIGS  =  -1.00 -1.00
  virtual crystal weights 
   VCA    =   1.00  1.00
   NELECT =      18.0000    total number of electrons
   NUPDOWN=      -1.0000    fix difference up-down

 DOS related values:
   EMIN   =  10.00;   EMAX   =-10.00  energy-range for DOS
   EFERMI =   0.00
   ISMEAR =     0;   SIGMA  =   0.01  broadening in eV -4-tet -1-fermi 0-gaus

 Electronic relaxation 2 (details)
   IALGO  =     38    algorithm
   LDIAG  =      T    sub-space diagonalisation (order eigenvalues)
   LSUBROT=      F    optimize rotation matrix (better conditioning)
   TURBO    =      0    0=normal 1=particle mesh
   IRESTART =      0    0=no restart 2=restart with 2 vectors
   NREBOOT  =      0    no. of reboots
   NMIN     =      0    reboot dimension
   EREF     =   0.00    reference energy to select bands
   IMIX   =      4    mixing-type and parameters
     AMIX     =   0.40;   BMIX     =  1.00
     AMIX_MAG =   1.60;   BMIX_MAG =  1.00
     AMIN     =   0.01
     WC   =   100.;   INIMIX=   1;  MIXPRE=   1;  MAXMIX= -45

 Intra band minimization:
   WEIMIN = 0.0010     energy-eigenvalue tresh-hold
   EBREAK =  0.16E-07  absolut break condition
   DEPER  =   0.30     relativ break condition  

   TIME   =   0.40     timestep for ELM

  volume/ion in A,a.u.               =      34.05       229.81
  Fermi-wavevector in a.u.,A,eV,Ry     =   1.050581  1.985311 15.017042  1.103721
  Thomas-Fermi vector in A             =   2.185590
 
 Write flags
   LWAVE  =      T    write WAVECAR
   LCHARG =      T    write CHGCAR
   LVTOT  =      F    write LOCPOT, total local potential
   LVHAR  =      F    write LOCPOT, Hartree potential only
   LELF   =      F    write electronic localiz. function (ELF)
   LORBIT =     10    0 simple, 1 ext, 2 COOP (PROOUT)


 Dipole corrections
   LMONO  =      F    monopole corrections only (constant potential shift)
   LDIPOL =      F    correct potential (dipole corrections)
   IDIPOL =      0    1-x, 2-y, 3-z, 4-all directions 
   EPSILON=  1.0000000 bulk dielectric constant

 Core level calculations are selected ICORELEVEL =  1
 Exchange correlation treatment:
   GGA     =    PS    GGA type
   LEXCH   =    14    internal setting for exchange type
   VOSKOWN=      0    Vosko Wilk Nusair interpolation
   LHFCALC =     F    Hartree Fock is set to
   LHFONE  =     F    Hartree Fock one center treatment
   AEXX    =    0.0000 exact exchange contribution

 Linear response parameters
   LEPSILON=     F    determine dielectric tensor
   LRPA    =     F    only Hartree local field effects (RPA)
   LNABLA  =     F    use nabla operator in PAW spheres
   LVEL    =     F    velocity operator in full k-point grid
   LINTERFAST=   F  fast interpolation
   KINTER  =     0    interpolate to denser k-point grid
   CSHIFT  =0.1000    complex shift for real part using Kramers Kronig
   OMEGAMAX=  -1.0    maximum frequency
   DEG_THRESHOLD= 0.2000000E-02 threshold for treating states as degnerate
   RTIME   =    0.100 relaxation time in fs

 Orbital magnetization related:
   ORBITALMAG=     F  switch on orbital magnetization
   LCHIMAG   =     F  perturbation theory with respect to B field
   DQ        =  0.001000  dq finite difference perturbation B field



--------------------------------------------------------------------------------------------------------


 conjugate gradient relaxation of ions
 charge density and potential remain constant during run
 non-spin polarized calculation
 Variant of blocked Davidson
 Davidson routine will perform the subspace rotation
 perform sub-space diagonalisation
    after iterative eigenvector-optimisation
 no mixing
 using additional bands            7
 reciprocal scheme for non local part
 use partial core corrections
 calculate Harris-corrections to forces 
   (improved forces if not selfconsistent)
 use gradient corrections 
 WARNING: stress and forces are not correct
  (second derivative of E(xc) not defined)
 use of overlap-Matrix (Vanderbilt PP)
 Gauss-broadening in eV      SIGMA  =   0.01


--------------------------------------------------------------------------------------------------------


  energy-cutoff  :      500.00
  volume of cell :       68.11
      direct lattice vectors                 reciprocal lattice vectors
     3.241350000  3.241350000  0.000000000     0.154256714  0.154256714  0.154256714
     3.241350000  0.000000000 -3.241350000     0.154256714 -0.154256714 -0.154256714
     0.000000000  3.241350000 -3.241350000    -0.154256714  0.154256714 -0.154256714

  length of vectors
     4.583961130  4.583961130  4.583961130     0.267180466  0.267180466  0.267180466


 
 k-points in units of 2pi/SCALE and weight: Automatically generated mesh SCF: 16 ste
   0.00000000  0.00000000  0.00000000       0.005
   0.16666667  0.16666667  0.16666667       0.037
   0.33333333  0.33333333  0.33333333       0.037
   0.50000000  0.50000000  0.50000000       0.019
   0.33333333  0.00000000  0.00000000       0.028
   0.50000000  0.16666667  0.16666667       0.111
   0.66666667  0.33333333  0.33333333       0.111
  -0.16666667 -0.50000000 -0.50000000       0.111
   0.00000000 -0.33333333 -0.33333333       0.056
   0.66666667  0.00000000  0.00000000       0.028
   0.83333333  0.16666667  0.16666667       0.111
   0.00000000 -0.66666667 -0.66666667       0.056
   1.00000000  0.00000000  0.00000000       0.014
   0.66666667  0.33333333  0.00000000       0.111
  -0.16666667 -0.50000000 -0.83333333       0.111
   0.00000000 -0.66666667 -1.00000000       0.056
   0.00000000  0.00000000  0.00000000       0.000
   0.00000000  0.00084176  0.00000000       0.000
   0.00000000  0.00168350  0.00000000       0.000
   0.00000000  0.00252526  0.00000000       0.000
   0.00000000  0.00336700  0.00000000       0.000
   0.00000000  0.00420876  0.00000000       0.000
   0.00000000  0.00505050  0.00000000       0.000
   0.00000000  0.00589226  0.00000000       0.000
   0.00000000  0.00673400  0.00000000       0.000
   0.00000000  0.00757576  0.00000000       0.000
   0.00000000  0.00841750  0.00000000       0.000
   0.00000000  0.00925926  0.00000000       0.000
   0.00000000  0.01010102  0.00000000       0.000
   0.00000000  0.01094276  0.00000000       0.000
   0.00000000  0.01178452  0.00000000       0.000
   0.00000000  0.01262626  0.00000000       0.000
   0.00000000  0.01346802  0.00000000       0.000
   0.00000000  0.01430976  0.00000000       0.000
   0.00000000  0.01515152  0.00000000       0.000
   0.00000000  0.01599326  0.00000000       0.000
   0.00000000  0.01683502  0.00000000       0.000
   0.00000000  0.01767676  0.00000000       0.000
   0.00000000  0.01851852  0.00000000       0.000
   0.00000000  0.01936028  0.00000000       0.000
   0.00000000  0.02020202  0.00000000       0.000
   0.00000000  0.02104378  0.00000000       0.000
   0.00000000  0.02188552  0.00000000       0.000
   0.00000000  0.02272728  0.00000000       0.000
   0.00000000  0.02356902  0.00000000       0.000
   0.00000000  0.02441078  0.00000000       0.000
   0.00000000  0.02525252  0.00000000       0.000
   0.00000000  0.02609428  0.00000000       0.000
   0.00000000  0.02693602  0.00000000       0.000
   0.00000000  0.02777778  0.00000000       0.000
   0.00000000  0.02861952  0.00000000       0.000
   0.00000000  0.02946128  0.00000000       0.000
   0.00000000  0.03030304  0.00000000       0.000
   0.00000000  0.03114478  0.00000000       0.000
   0.00000000  0.03198654  0.00000000       0.000
   0.00000000  0.03282828  0.00000000       0.000
   0.00000000  0.03367004  0.00000000       0.000
   0.00000000  0.03451178  0.00000000       0.000
   0.00000000  0.03535354  0.00000000       0.000
   0.00000000  0.03619528  0.00000000       0.000
   0.00000000  0.03703704  0.00000000       0.000
   0.00000000  0.03787878  0.00000000       0.000
   0.00000000  0.03872054  0.00000000       0.000
   0.00000000  0.03956230  0.00000000       0.000
   0.00000000  0.04040404  0.00000000       0.000
   0.00000000  0.04124580  0.00000000       0.000
   0.00000000  0.04208754  0.00000000       0.000
   0.00000000  0.04292930  0.00000000       0.000
   0.00000000  0.04377104  0.00000000       0.000
   0.00000000  0.04461280  0.00000000       0.000
   0.00000000  0.04545454  0.00000000       0.000
   0.00000000  0.04629630  0.00000000       0.000
   0.00000000  0.04713804  0.00000000       0.000
   0.00000000  0.04797980  0.00000000       0.000
   0.00000000  0.04882154  0.00000000       0.000
   0.00000000  0.04966330  0.00000000       0.000
   0.00000000  0.05050506  0.00000000       0.000
   0.00000000  0.05134680  0.00000000       0.000
   0.00000000  0.05218856  0.00000000       0.000
   0.00000000  0.05303030  0.00000000       0.000
   0.00000000  0.05387206  0.00000000       0.000
   0.00000000  0.05471380  0.00000000       0.000
   0.00000000  0.05555556  0.00000000       0.000
   0.00000000  0.05639732  0.00000000       0.000
   0.00000000  0.05723906  0.00000000       0.000
   0.00000000  0.05808080  0.00000000       0.000
   0.00000000  0.05892256  0.00000000       0.000
   0.00000000  0.05976432  0.00000000       0.000
   0.00000000  0.06060606  0.00000000       0.000
   0.00000000  0.06144782  0.00000000       0.000
   0.00000000  0.06228956  0.00000000       0.000
   0.00000000  0.06313132  0.00000000       0.000
   0.00000000  0.06397306  0.00000000       0.000
   0.00000000  0.06481482  0.00000000       0.000
   0.00000000  0.06565656  0.00000000       0.000
   0.00000000  0.06649832  0.00000000       0.000
   0.00000000  0.06734006  0.00000000       0.000
   0.00000000  0.06818182  0.00000000       0.000
   0.00000000  0.06902358  0.00000000       0.000
   0.00000000  0.06986532  0.00000000       0.000
   0.00000000  0.07070706  0.00000000       0.000
   0.00000000  0.07154882  0.00000000       0.000
   0.00000000  0.07239058  0.00000000       0.000
   0.00000000  0.07323232  0.00000000       0.000
   0.00000000  0.07407408  0.00000000       0.000
   0.00000000  0.07491582  0.00000000       0.000
   0.00000000  0.07575758  0.00000000       0.000
   0.00000000  0.07659932  0.00000000       0.000
   0.00000000  0.07744108  0.00000000       0.000
   0.00000000  0.07828284  0.00000000       0.000
   0.00000000  0.07912458  0.00000000       0.000
   0.00000000  0.07996634  0.00000000       0.000
   0.00000000  0.08080808  0.00000000       0.000
   0.00000000  0.08164984  0.00000000       0.000
   0.00000000  0.08249158  0.00000000       0.000
   0.00000000  0.08333334  0.00000000       0.000
   0.00000000  0.08417508  0.00000000       0.000
   0.00000000  0.08501684  0.00000000       0.000
   0.00000000  0.08585860  0.00000000       0.000
   0.00000000  0.08670034  0.00000000       0.000
   0.00000000  0.08754208  0.00000000       0.000
   0.00000000  0.08838384  0.00000000       0.000
   0.00000000  0.08922560  0.00000000       0.000
   0.00000000  0.09006734  0.00000000       0.000
   0.00000000  0.09090908  0.00000000       0.000
   0.00000000  0.09175084  0.00000000       0.000
   0.00000000  0.09259258  0.00000000       0.000
   0.00000000  0.09343434  0.00000000       0.000
   0.00000000  0.09427610  0.00000000       0.000
   0.00000000  0.09511786  0.00000000       0.000
   0.00000000  0.09595960  0.00000000       0.000
   0.00000000  0.09680134  0.00000000       0.000
   0.00000000  0.09764310  0.00000000       0.000
   0.00000000  0.09848486  0.00000000       0.000
   0.00000000  0.09932660  0.00000000       0.000
   0.00000000  0.10016836  0.00000000       0.000
   0.00000000  0.10101010  0.00000000       0.000
   0.00000000  0.10185186  0.00000000       0.000
   0.00000000  0.10269360  0.00000000       0.000
   0.00000000  0.10353536  0.00000000       0.000
   0.00000000  0.10437710  0.00000000       0.000
   0.00000000  0.10521886  0.00000000       0.000
   0.00000000  0.10606060  0.00000000       0.000
   0.00000000  0.10690236  0.00000000       0.000
   0.00000000  0.10774412  0.00000000       0.000
   0.00000000  0.10858586  0.00000000       0.000
   0.00000000  0.10942762  0.00000000       0.000
   0.00000000  0.11026936  0.00000000       0.000
   0.00000000  0.11111112  0.00000000       0.000
   0.00000000  0.11195286  0.00000000       0.000
   0.00000000  0.11279462  0.00000000       0.000
   0.00000000  0.11363636  0.00000000       0.000
   0.00000000  0.11447812  0.00000000       0.000
   0.00000000  0.11531988  0.00000000       0.000
   0.00000000  0.11616162  0.00000000       0.000
   0.00000000  0.11700338  0.00000000       0.000
   0.00000000  0.11784512  0.00000000       0.000
   0.00000000  0.11868688  0.00000000       0.000
   0.00000000  0.11952862  0.00000000       0.000
   0.00000000  0.12037036  0.00000000       0.000
   0.00000000  0.12121212  0.00000000       0.000
   0.00000000  0.12205386  0.00000000       0.000
   0.00000000  0.12289562  0.00000000       0.000
   0.00000000  0.12373738  0.00000000       0.000
   0.00000000  0.12457914  0.00000000       0.000
   0.00000000  0.12542088  0.00000000       0.000
   0.00000000  0.12626262  0.00000000       0.000
   0.00000000  0.12710438  0.00000000       0.000
   0.00000000  0.12794612  0.00000000       0.000
   0.00000000  0.12878790  0.00000000       0.000
   0.00000000  0.12962962  0.00000000       0.000
   0.00000000  0.13047140  0.00000000       0.000
   0.00000000  0.13131314  0.00000000       0.000
   0.00000000  0.13215488  0.00000000       0.000
   0.00000000  0.13299664  0.00000000       0.000
   0.00000000  0.13383838  0.00000000       0.000
   0.00000000  0.13468014  0.00000000       0.000
   0.00000000  0.13552188  0.00000000       0.000
   0.00000000  0.13636364  0.00000000       0.000
   0.00000000  0.13720540  0.00000000       0.000
   0.00000000  0.13804714  0.00000000       0.000
   0.00000000  0.13888890  0.00000000       0.000
   0.00000000  0.13973064  0.00000000       0.000
   0.00000000  0.14057240  0.00000000       0.000
   0.00000000  0.14141414  0.00000000       0.000
   0.00000000  0.14225590  0.00000000       0.000
   0.00000000  0.14309764  0.00000000       0.000
   0.00000000  0.14393940  0.00000000       0.000
   0.00000000  0.14478114  0.00000000       0.000
   0.00000000  0.14562290  0.00000000       0.000
   0.00000000  0.14646464  0.00000000       0.000
   0.00000000  0.14730640  0.00000000       0.000
   0.00000000  0.14814814  0.00000000       0.000
   0.00000000  0.14898990  0.00000000       0.000
   0.00000000  0.14983166  0.00000000       0.000
   0.00000000  0.15067340  0.00000000       0.000
   0.00000000  0.15151516  0.00000000       0.000
   0.00000000  0.15235690  0.00000000       0.000
   0.00000000  0.15319866  0.00000000       0.000
   0.00000000  0.15404042  0.00000000       0.000
   0.00000000  0.15488216  0.00000000       0.000
   0.00000000  0.15572390  0.00000000       0.000
   0.00000000  0.15656566  0.00000000       0.000
   0.00000000  0.15740740  0.00000000       0.000
   0.00000000  0.15824916  0.00000000       0.000
   0.00000000  0.15909090  0.00000000       0.000
   0.00000000  0.15993268  0.00000000       0.000
   0.00000000  0.16077440  0.00000000       0.000
   0.00000000  0.16161616  0.00000000       0.000
   0.00000000  0.16245792  0.00000000       0.000
   0.00000000  0.16329966  0.00000000       0.000
   0.00000000  0.16414142  0.00000000       0.000
   0.00000000  0.16498316  0.00000000       0.000
   0.00000000  0.16582492  0.00000000       0.000
   0.00000000  0.16666668  0.00000000       0.000
   0.00000000  0.16750842  0.00000000       0.000
   0.00000000  0.16835018  0.00000000       0.000
   0.00000000  0.16919192  0.00000000       0.000
   0.00000000  0.17003368  0.00000000       0.000
   0.00000000  0.17087544  0.00000000       0.000
   0.00000000  0.17171718  0.00000000       0.000
   0.00000000  0.17255894  0.00000000       0.000
   0.00000000  0.17340068  0.00000000       0.000
   0.00000000  0.17424242  0.00000000       0.000
   0.00000000  0.17508418  0.00000000       0.000
   0.00000000  0.17592592  0.00000000       0.000
   0.00000000  0.17676768  0.00000000       0.000
   0.00000000  0.17760942  0.00000000       0.000
   0.00000000  0.17845120  0.00000000       0.000
   0.00000000  0.17929294  0.00000000       0.000
   0.00000000  0.18013468  0.00000000       0.000
   0.00000000  0.18097644  0.00000000       0.000
   0.00000000  0.18181818  0.00000000       0.000
   0.00000000  0.18265994  0.00000000       0.000
   0.00000000  0.18350170  0.00000000       0.000
   0.00000000  0.18434344  0.00000000       0.000
   0.00000000  0.18518518  0.00000000       0.000
   0.00000000  0.18602694  0.00000000       0.000
   0.00000000  0.18686870  0.00000000       0.000
   0.00000000  0.18771044  0.00000000       0.000
   0.00000000  0.18855218  0.00000000       0.000
   0.00000000  0.18939396  0.00000000       0.000
   0.00000000  0.19023570  0.00000000       0.000
   0.00000000  0.19107744  0.00000000       0.000
   0.00000000  0.19191920  0.00000000       0.000
   0.00000000  0.19276096  0.00000000       0.000
   0.00000000  0.19360270  0.00000000       0.000
   0.00000000  0.19444444  0.00000000       0.000
   0.00000000  0.19528620  0.00000000       0.000
   0.00000000  0.19612796  0.00000000       0.000
   0.00000000  0.19696970  0.00000000       0.000
   0.00000000  0.19781146  0.00000000       0.000
   0.00000000  0.19865320  0.00000000       0.000
   0.00000000  0.19949494  0.00000000       0.000
   0.00000000  0.20033670  0.00000000       0.000
   0.00000000  0.20117846  0.00000000       0.000
   0.00000000  0.20202022  0.00000000       0.000
   0.00000000  0.20286194  0.00000000       0.000
   0.00000000  0.20370372  0.00000000       0.000
   0.00000000  0.20454546  0.00000000       0.000
   0.00000000  0.20538720  0.00000000       0.000
   0.00000000  0.20622896  0.00000000       0.000
   0.00000000  0.20707070  0.00000000       0.000
   0.00000000  0.20791248  0.00000000       0.000
   0.00000000  0.20875422  0.00000000       0.000
   0.00000000  0.20959596  0.00000000       0.000
   0.00000000  0.21043772  0.00000000       0.000
   0.00000000  0.21127946  0.00000000       0.000
   0.00000000  0.21212122  0.00000000       0.000
   0.00000000  0.21296298  0.00000000       0.000
   0.00000000  0.21380472  0.00000000       0.000
   0.00000000  0.21464646  0.00000000       0.000
   0.00000000  0.21548822  0.00000000       0.000
   0.00000000  0.21632998  0.00000000       0.000
   0.00000000  0.21717172  0.00000000       0.000
   0.00000000  0.21801346  0.00000000       0.000
   0.00000000  0.21885524  0.00000000       0.000
   0.00000000  0.21969698  0.00000000       0.000
   0.00000000  0.22053872  0.00000000       0.000
   0.00000000  0.22138048  0.00000000       0.000
   0.00000000  0.22222224  0.00000000       0.000
   0.00000000  0.22306398  0.00000000       0.000
   0.00000000  0.22390572  0.00000000       0.000
   0.00000000  0.22474748  0.00000000       0.000
   0.00000000  0.22558924  0.00000000       0.000
   0.00000000  0.22643098  0.00000000       0.000
   0.00000000  0.22727274  0.00000000       0.000
   0.00000000  0.22811448  0.00000000       0.000
   0.00000000  0.22895622  0.00000000       0.000
   0.00000000  0.22979798  0.00000000       0.000
   0.00000000  0.23063974  0.00000000       0.000
   0.00000000  0.23148150  0.00000000       0.000
   0.00000000  0.23232322  0.00000000       0.000
   0.00000000  0.23316500  0.00000000       0.000
   0.00000000  0.23400674  0.00000000       0.000
   0.00000000  0.23484848  0.00000000       0.000
   0.00000000  0.23569024  0.00000000       0.000
   0.00000000  0.23653200  0.00000000       0.000
   0.00000000  0.23737376  0.00000000       0.000
   0.00000000  0.23821550  0.00000000       0.000
   0.00000000  0.23905724  0.00000000       0.000
   0.00000000  0.23989900  0.00000000       0.000
   0.00000000  0.24074074  0.00000000       0.000
   0.00000000  0.24158250  0.00000000       0.000
   0.00000000  0.24242424  0.00000000       0.000
   0.00000000  0.24326600  0.00000000       0.000
   0.00000000  0.24410774  0.00000000       0.000
   0.00000000  0.24494950  0.00000000       0.000
   0.00000000  0.24579126  0.00000000       0.000
   0.00000000  0.24663300  0.00000000       0.000
   0.00000000  0.24747474  0.00000000       0.000
   0.00000000  0.24831652  0.00000000       0.000
   0.00000000  0.24915826  0.00000000       0.000
   0.00000000  0.25000000  0.00000000       0.000
   0.00000000  0.25084176  0.00000000       0.000
   0.00000000  0.25168350  0.00000000       0.000
   0.00000000  0.25252524  0.00000000       0.000
   0.00000000  0.25336700  0.00000000       0.000
   0.00000000  0.25420878  0.00000000       0.000
   0.00000000  0.25505052  0.00000000       0.000
   0.00000000  0.25589224  0.00000000       0.000
   0.00000000  0.25673402  0.00000000       0.000
   0.00000000  0.25757578  0.00000000       0.000
   0.00000000  0.25841752  0.00000000       0.000
   0.00000000  0.25925926  0.00000000       0.000
   0.00000000  0.26010102  0.00000000       0.000
   0.00000000  0.26094278  0.00000000       0.000
   0.00000000  0.26178452  0.00000000       0.000
   0.00000000  0.26262626  0.00000000       0.000
   0.00000000  0.26346802  0.00000000       0.000
   0.00000000  0.26430976  0.00000000       0.000
   0.00000000  0.26515154  0.00000000       0.000
   0.00000000  0.26599326  0.00000000       0.000
   0.00000000  0.26683504  0.00000000       0.000
   0.00000000  0.26767678  0.00000000       0.000
   0.00000000  0.26851854  0.00000000       0.000
   0.00000000  0.26936028  0.00000000       0.000
   0.00000000  0.27020202  0.00000000       0.000
   0.00000000  0.27104378  0.00000000       0.000
   0.00000000  0.27188554  0.00000000       0.000
   0.00000000  0.27272728  0.00000000       0.000
   0.00000000  0.27356902  0.00000000       0.000
   0.00000000  0.27441078  0.00000000       0.000
   0.00000000  0.27525256  0.00000000       0.000
   0.00000000  0.27609428  0.00000000       0.000
   0.00000000  0.27693602  0.00000000       0.000
   0.00000000  0.27777780  0.00000000       0.000
   0.00000000  0.27861956  0.00000000       0.000
   0.00000000  0.27946130  0.00000000       0.000
   0.00000000  0.28030304  0.00000000       0.000
   0.00000000  0.28114480  0.00000000       0.000
   0.00000000  0.28198654  0.00000000       0.000
   0.00000000  0.28282828  0.00000000       0.000
   0.00000000  0.28367004  0.00000000       0.000
   0.00000000  0.28451180  0.00000000       0.000
   0.00000000  0.28535354  0.00000000       0.000
   0.00000000  0.28619528  0.00000000       0.000
   0.00000000  0.28703704  0.00000000       0.000
   0.00000000  0.28787878  0.00000000       0.000
   0.00000000  0.28872054  0.00000000       0.000
   0.00000000  0.28956228  0.00000000       0.000
   0.00000000  0.29040406  0.00000000       0.000
   0.00000000  0.29124578  0.00000000       0.000
   0.00000000  0.29208756  0.00000000       0.000
   0.00000000  0.29292930  0.00000000       0.000
   0.00000000  0.29377102  0.00000000       0.000
   0.00000000  0.29461280  0.00000000       0.000
   0.00000000  0.29545456  0.00000000       0.000
   0.00000000  0.29629630  0.00000000       0.000
   0.00000000  0.29713804  0.00000000       0.000
   0.00000000  0.29797980  0.00000000       0.000
   0.00000000  0.29882156  0.00000000       0.000
   0.00000000  0.29966330  0.00000000       0.000
   0.00000000  0.30050504  0.00000000       0.000
   0.00000000  0.30134680  0.00000000       0.000
   0.00000000  0.30218858  0.00000000       0.000
   0.00000000  0.30303032  0.00000000       0.000
   0.00000000  0.30387204  0.00000000       0.000
   0.00000000  0.30471382  0.00000000       0.000
   0.00000000  0.30555556  0.00000000       0.000
   0.00000000  0.30639732  0.00000000       0.000
   0.00000000  0.30723906  0.00000000       0.000
   0.00000000  0.30808082  0.00000000       0.000
   0.00000000  0.30892256  0.00000000       0.000
   0.00000000  0.30976432  0.00000000       0.000
   0.00000000  0.31060606  0.00000000       0.000
   0.00000000  0.31144780  0.00000000       0.000
   0.00000000  0.31228956  0.00000000       0.000
   0.00000000  0.31313134  0.00000000       0.000
   0.00000000  0.31397306  0.00000000       0.000
   0.00000000  0.31481480  0.00000000       0.000
   0.00000000  0.31565658  0.00000000       0.000
   0.00000000  0.31649834  0.00000000       0.000
   0.00000000  0.31734008  0.00000000       0.000
   0.00000000  0.31818182  0.00000000       0.000
   0.00000000  0.31902358  0.00000000       0.000
   0.00000000  0.31986534  0.00000000       0.000
   0.00000000  0.32070708  0.00000000       0.000
   0.00000000  0.32154882  0.00000000       0.000
   0.00000000  0.32239058  0.00000000       0.000
   0.00000000  0.32323232  0.00000000       0.000
   0.00000000  0.32407408  0.00000000       0.000
   0.00000000  0.32491582  0.00000000       0.000
   0.00000000  0.32575760  0.00000000       0.000
   0.00000000  0.32659932  0.00000000       0.000
   0.00000000  0.32744110  0.00000000       0.000
   0.00000000  0.32828284  0.00000000       0.000
   0.00000000  0.32912460  0.00000000       0.000
   0.00000000  0.32996634  0.00000000       0.000
   0.00000000  0.33080810  0.00000000       0.000
   0.00000000  0.33164984  0.00000000       0.000
   0.00000000  0.33249158  0.00000000       0.000
   0.00000000  0.33333334  0.00000000       0.000
   0.00000000  0.33417510  0.00000000       0.000
   0.00000000  0.33501684  0.00000000       0.000
   0.00000000  0.33585858  0.00000000       0.000
   0.00000000  0.33670036  0.00000000       0.000
   0.00000000  0.33754212  0.00000000       0.000
   0.00000000  0.33838386  0.00000000       0.000
   0.00000000  0.33922560  0.00000000       0.000
   0.00000000  0.34006736  0.00000000       0.000
   0.00000000  0.34090912  0.00000000       0.000
   0.00000000  0.34175086  0.00000000       0.000
   0.00000000  0.34259260  0.00000000       0.000
   0.00000000  0.34343436  0.00000000       0.000
   0.00000000  0.34427610  0.00000000       0.000
   0.00000000  0.34511786  0.00000000       0.000
   0.00000000  0.34595960  0.00000000       0.000
   0.00000000  0.34680138  0.00000000       0.000
   0.00000000  0.34764310  0.00000000       0.000
   0.00000000  0.34848484  0.00000000       0.000
   0.00000000  0.34932662  0.00000000       0.000
   0.00000000  0.35016834  0.00000000       0.000
   0.00000000  0.35101012  0.00000000       0.000
   0.00000000  0.35185186  0.00000000       0.000
   0.00000000  0.35269362  0.00000000       0.000
   0.00000000  0.35353536  0.00000000       0.000
   0.00000000  0.35437712  0.00000000       0.000
   0.00000000  0.35521886  0.00000000       0.000
   0.00000000  0.35606062  0.00000000       0.000
   0.00000000  0.35690240  0.00000000       0.000
   0.00000000  0.35774410  0.00000000       0.000
   0.00000000  0.35858586  0.00000000       0.000
   0.00000000  0.35942760  0.00000000       0.000
   0.00000000  0.36026936  0.00000000       0.000
   0.00000000  0.36111114  0.00000000       0.000
   0.00000000  0.36195288  0.00000000       0.000
   0.00000000  0.36279464  0.00000000       0.000
   0.00000000  0.36363634  0.00000000       0.000
   0.00000000  0.36447812  0.00000000       0.000
   0.00000000  0.36531988  0.00000000       0.000
   0.00000000  0.36616162  0.00000000       0.000
   0.00000000  0.36700338  0.00000000       0.000
   0.00000000  0.36784514  0.00000000       0.000
   0.00000000  0.36868688  0.00000000       0.000
   0.00000000  0.36952862  0.00000000       0.000
   0.00000000  0.37037036  0.00000000       0.000
   0.00000000  0.37121212  0.00000000       0.000
   0.00000000  0.37205390  0.00000000       0.000
   0.00000000  0.37289562  0.00000000       0.000
   0.00000000  0.37373740  0.00000000       0.000
   0.00000000  0.37457916  0.00000000       0.000
   0.00000000  0.37542086  0.00000000       0.000
   0.00000000  0.37626264  0.00000000       0.000
   0.00000000  0.37710438  0.00000000       0.000
   0.00000000  0.37794614  0.00000000       0.000
   0.00000000  0.37878790  0.00000000       0.000
   0.00000000  0.37962964  0.00000000       0.000
   0.00000000  0.38047140  0.00000000       0.000
   0.00000000  0.38131312  0.00000000       0.000
   0.00000000  0.38215488  0.00000000       0.000
   0.00000000  0.38299664  0.00000000       0.000
   0.00000000  0.38383838  0.00000000       0.000
   0.00000000  0.38468016  0.00000000       0.000
   0.00000000  0.38552192  0.00000000       0.000
   0.00000000  0.38636366  0.00000000       0.000
   0.00000000  0.38720540  0.00000000       0.000
   0.00000000  0.38804712  0.00000000       0.000
   0.00000000  0.38888890  0.00000000       0.000
   0.00000000  0.38973066  0.00000000       0.000
   0.00000000  0.39057240  0.00000000       0.000
   0.00000000  0.39141416  0.00000000       0.000
   0.00000000  0.39225594  0.00000000       0.000
   0.00000000  0.39309764  0.00000000       0.000
   0.00000000  0.39393940  0.00000000       0.000
   0.00000000  0.39478114  0.00000000       0.000
   0.00000000  0.39562290  0.00000000       0.000
   0.00000000  0.39646468  0.00000000       0.000
   0.00000000  0.39730642  0.00000000       0.000
   0.00000000  0.39814818  0.00000000       0.000
   0.00000000  0.39898988  0.00000000       0.000
   0.00000000  0.39983166  0.00000000       0.000
   0.00000000  0.40067342  0.00000000       0.000
   0.00000000  0.40151516  0.00000000       0.000
   0.00000000  0.40235692  0.00000000       0.000
   0.00000000  0.40319868  0.00000000       0.000
   0.00000000  0.40404042  0.00000000       0.000
   0.00000000  0.40488214  0.00000000       0.000
   0.00000000  0.40572390  0.00000000       0.000
   0.00000000  0.40656566  0.00000000       0.000
   0.00000000  0.40740744  0.00000000       0.000
   0.00000000  0.40824916  0.00000000       0.000
   0.00000000  0.40909094  0.00000000       0.000
   0.00000000  0.40993270  0.00000000       0.000
   0.00000000  0.41077440  0.00000000       0.000
   0.00000000  0.41161614  0.00000000       0.000
   0.00000000  0.41245792  0.00000000       0.000
   0.00000000  0.41329968  0.00000000       0.000
   0.00000000  0.41414142  0.00000000       0.000
   0.00000000  0.41498318  0.00000000       0.000
   0.00000000  0.41582494  0.00000000       0.000
   0.00000000  0.41666666  0.00000000       0.000
   0.00000000  0.41750842  0.00000000       0.000
   0.00000000  0.41835016  0.00000000       0.000
   0.00000000  0.41919192  0.00000000       0.000
   0.00000000  0.42003370  0.00000000       0.000
   0.00000000  0.42087544  0.00000000       0.000
   0.00000000  0.42171720  0.00000000       0.000
   0.00000000  0.42255890  0.00000000       0.000
   0.00000000  0.42340068  0.00000000       0.000
   0.00000000  0.42424244  0.00000000       0.000
   0.00000000  0.42508418  0.00000000       0.000
   0.00000000  0.42592594  0.00000000       0.000
   0.00000000  0.42676770  0.00000000       0.000
   0.00000000  0.42760944  0.00000000       0.000
   0.00000000  0.42845118  0.00000000       0.000
   0.00000000  0.42929292  0.00000000       0.000
   0.00000000  0.43013468  0.00000000       0.000
   0.00000000  0.43097646  0.00000000       0.000
   0.00000000  0.43181818  0.00000000       0.000
   0.00000000  0.43265996  0.00000000       0.000
   0.00000000  0.43350172  0.00000000       0.000
   0.00000000  0.43434342  0.00000000       0.000
   0.00000000  0.43518520  0.00000000       0.000
   0.00000000  0.43602694  0.00000000       0.000
   0.00000000  0.43686870  0.00000000       0.000
   0.00000000  0.43771046  0.00000000       0.000
   0.00000000  0.43855220  0.00000000       0.000
   0.00000000  0.43939396  0.00000000       0.000
   0.00000000  0.44023568  0.00000000       0.000
   0.00000000  0.44107744  0.00000000       0.000
   0.00000000  0.44191920  0.00000000       0.000
   0.00000000  0.44276094  0.00000000       0.000
   0.00000000  0.44360272  0.00000000       0.000
   0.00000000  0.44444448  0.00000000       0.000
   0.00000000  0.44528622  0.00000000       0.000
   0.00000000  0.44612796  0.00000000       0.000
   0.00000000  0.44696968  0.00000000       0.000
   0.00000000  0.44781146  0.00000000       0.000
   0.00000000  0.44865322  0.00000000       0.000
   0.00000000  0.44949496  0.00000000       0.000
   0.00000000  0.45033672  0.00000000       0.000
   0.00000000  0.45117850  0.00000000       0.000
   0.00000000  0.45202020  0.00000000       0.000
   0.00000000  0.45286196  0.00000000       0.000
   0.00000000  0.45370370  0.00000000       0.000
   0.00000000  0.45454546  0.00000000       0.000
   0.00000000  0.45538724  0.00000000       0.000
   0.00000000  0.45622898  0.00000000       0.000
   0.00000000  0.45707074  0.00000000       0.000
   0.00000000  0.45791244  0.00000000       0.000
   0.00000000  0.45875422  0.00000000       0.000
   0.00000000  0.45959598  0.00000000       0.000
   0.00000000  0.46043772  0.00000000       0.000
   0.00000000  0.46127948  0.00000000       0.000
   0.00000000  0.46212124  0.00000000       0.000
   0.00000000  0.46296298  0.00000000       0.000
   0.00000000  0.46380472  0.00000000       0.000
   0.00000000  0.46464646  0.00000000       0.000
   0.00000000  0.46548822  0.00000000       0.000
   0.00000000  0.46633000  0.00000000       0.000
   0.00000000  0.46717172  0.00000000       0.000
   0.00000000  0.46801350  0.00000000       0.000
   0.00000000  0.46885526  0.00000000       0.000
   0.00000000  0.46969696  0.00000000       0.000
   0.00000000  0.47053870  0.00000000       0.000
   0.00000000  0.47138048  0.00000000       0.000
   0.00000000  0.47222224  0.00000000       0.000
   0.00000000  0.47306400  0.00000000       0.000
   0.00000000  0.47390574  0.00000000       0.000
   0.00000000  0.47474750  0.00000000       0.000
   0.00000000  0.47558922  0.00000000       0.000
   0.00000000  0.47643098  0.00000000       0.000
   0.00000000  0.47727272  0.00000000       0.000
   0.00000000  0.47811448  0.00000000       0.000
   0.00000000  0.47895626  0.00000000       0.000
   0.00000000  0.47979798  0.00000000       0.000
   0.00000000  0.48063976  0.00000000       0.000
   0.00000000  0.48148146  0.00000000       0.000
   0.00000000  0.48232322  0.00000000       0.000
   0.00000000  0.48316500  0.00000000       0.000
   0.00000000  0.48400674  0.00000000       0.000
   0.00000000  0.48484850  0.00000000       0.000
   0.00000000  0.48569026  0.00000000       0.000
   0.00000000  0.48653200  0.00000000       0.000
   0.00000000  0.48737374  0.00000000       0.000
   0.00000000  0.48821548  0.00000000       0.000
   0.00000000  0.48905724  0.00000000       0.000
   0.00000000  0.48989900  0.00000000       0.000
   0.00000000  0.49074074  0.00000000       0.000
   0.00000000  0.49158252  0.00000000       0.000
   0.00000000  0.49242428  0.00000000       0.000
   0.00000000  0.49326598  0.00000000       0.000
   0.00000000  0.49410776  0.00000000       0.000
   0.00000000  0.49494948  0.00000000       0.000
   0.00000000  0.49579126  0.00000000       0.000
   0.00000000  0.49663302  0.00000000       0.000
   0.00000000  0.49747476  0.00000000       0.000
   0.00000000  0.49831652  0.00000000       0.000
   0.00000000  0.49915824  0.00000000       0.000
   0.00000000  0.50000000  0.00000000       0.000
   0.00000000  0.50084174  0.00000000       0.000
   0.00000000  0.50168354  0.00000000       0.000
   0.00000000  0.50252526  0.00000000       0.000
   0.00000000  0.50336700  0.00000000       0.000
   0.00000000  0.50420880  0.00000000       0.000
   0.00000000  0.50505048  0.00000000       0.000
   0.00000000  0.50589228  0.00000000       0.000
   0.00000000  0.50673402  0.00000000       0.000
   0.00000000  0.50757576  0.00000000       0.000
   0.00000000  0.50841754  0.00000000       0.000
   0.00000000  0.50925928  0.00000000       0.000
   0.00000000  0.51010102  0.00000000       0.000
   0.00000000  0.51094276  0.00000000       0.000
   0.00000000  0.51178450  0.00000000       0.000
   0.00000000  0.51262630  0.00000000       0.000
   0.00000000  0.51346802  0.00000000       0.000
   0.00000000  0.51430976  0.00000000       0.000
   0.00000000  0.51515156  0.00000000       0.000
   0.00000000  0.51599330  0.00000000       0.000
   0.00000000  0.51683504  0.00000000       0.000
   0.00000000  0.51767678  0.00000000       0.000
   0.00000000  0.51851850  0.00000000       0.000
   0.00000000  0.51936030  0.00000000       0.000
   0.00000000  0.52020204  0.00000000       0.000
   0.00000000  0.52104378  0.00000000       0.000
   0.00000000  0.52188558  0.00000000       0.000
   0.00000000  0.52272726  0.00000000       0.000
   0.00000000  0.52356904  0.00000000       0.000
   0.00000000  0.52441078  0.00000000       0.000
   0.00000000  0.52525252  0.00000000       0.000
   0.00000000  0.52609432  0.00000000       0.000
   0.00000000  0.52693606  0.00000000       0.000
   0.00000000  0.52777780  0.00000000       0.000
   0.00000000  0.52861952  0.00000000       0.000
   0.00000000  0.52946126  0.00000000       0.000
   0.00000000  0.53030306  0.00000000       0.000
   0.00000000  0.53114480  0.00000000       0.000
   0.00000000  0.53198654  0.00000000       0.000
   0.00000000  0.53282834  0.00000000       0.000
   0.00000000  0.53367006  0.00000000       0.000
   0.00000000  0.53451180  0.00000000       0.000
   0.00000000  0.53535354  0.00000000       0.000
   0.00000000  0.53619528  0.00000000       0.000
   0.00000000  0.53703708  0.00000000       0.000
   0.00000000  0.53787882  0.00000000       0.000
   0.00000000  0.53872054  0.00000000       0.000
   0.00000000  0.53956234  0.00000000       0.000
   0.00000000  0.54040402  0.00000000       0.000
   0.00000000  0.54124582  0.00000000       0.000
   0.00000000  0.54208756  0.00000000       0.000
   0.00000000  0.54292930  0.00000000       0.000
   0.00000000  0.54377108  0.00000000       0.000
   0.00000000  0.54461282  0.00000000       0.000
   0.00000000  0.54545456  0.00000000       0.000
   0.00000000  0.54629630  0.00000000       0.000
   0.00000000  0.54713804  0.00000000       0.000
   0.00000000  0.54797984  0.00000000       0.000
   0.00000000  0.54882156  0.00000000       0.000
   0.00000000  0.54966330  0.00000000       0.000
   0.00000000  0.55050510  0.00000000       0.000
   0.00000000  0.55134684  0.00000000       0.000
   0.00000000  0.55218858  0.00000000       0.000
   0.00000000  0.55303032  0.00000000       0.000
   0.00000000  0.55387204  0.00000000       0.000
   0.00000000  0.55471384  0.00000000       0.000
   0.00000000  0.55555558  0.00000000       0.000
   0.00000000  0.55639732  0.00000000       0.000
   0.00000000  0.55723912  0.00000000       0.000
   0.00000000  0.55808080  0.00000000       0.000
   0.00000000  0.55892258  0.00000000       0.000
   0.00000000  0.55976432  0.00000000       0.000
   0.00000000  0.56060606  0.00000000       0.000
   0.00000000  0.56144786  0.00000000       0.000
   0.00000000  0.56228960  0.00000000       0.000
   0.00000000  0.56313134  0.00000000       0.000
   0.00000000  0.56397306  0.00000000       0.000
   0.00000000  0.56481480  0.00000000       0.000
   0.00000000  0.56565654  0.00000000       0.000
   0.00000000  0.56649834  0.00000000       0.000
   0.00000000  0.56734008  0.00000000       0.000
   0.00000000  0.56818188  0.00000000       0.000
   0.00000000  0.56902360  0.00000000       0.000
   0.00000000  0.56986528  0.00000000       0.000
   0.00000000  0.57070708  0.00000000       0.000
   0.00000000  0.57154882  0.00000000       0.000
   0.00000000  0.57239056  0.00000000       0.000
   0.00000000  0.57323236  0.00000000       0.000
   0.00000000  0.57407408  0.00000000       0.000
   0.00000000  0.57491582  0.00000000       0.000
   0.00000000  0.57575756  0.00000000       0.000
   0.00000000  0.57659930  0.00000000       0.000
   0.00000000  0.57744110  0.00000000       0.000
   0.00000000  0.57828284  0.00000000       0.000
   0.00000000  0.57912456  0.00000000       0.000
   0.00000000  0.57996636  0.00000000       0.000
   0.00000000  0.58080810  0.00000000       0.000
   0.00000000  0.58164984  0.00000000       0.000
   0.00000000  0.58249158  0.00000000       0.000
   0.00000000  0.58333332  0.00000000       0.000
   0.00000000  0.58417510  0.00000000       0.000
   0.00000000  0.58501684  0.00000000       0.000
   0.00000000  0.58585858  0.00000000       0.000
   0.00000000  0.58670038  0.00000000       0.000
   0.00000000  0.58754206  0.00000000       0.000
   0.00000000  0.58838386  0.00000000       0.000
   0.00000000  0.58922560  0.00000000       0.000
   0.00000000  0.59006732  0.00000000       0.000
   0.00000000  0.59090912  0.00000000       0.000
   0.00000000  0.59175086  0.00000000       0.000
   0.00000000  0.59259260  0.00000000       0.000
   0.00000000  0.59343434  0.00000000       0.000
   0.00000000  0.59427608  0.00000000       0.000
   0.00000000  0.59511786  0.00000000       0.000
   0.00000000  0.59595960  0.00000000       0.000
   0.00000000  0.59680134  0.00000000       0.000
   0.00000000  0.59764314  0.00000000       0.000
   0.00000000  0.59848488  0.00000000       0.000
   0.00000000  0.59932662  0.00000000       0.000
   0.00000000  0.60016834  0.00000000       0.000
   0.00000000  0.60101008  0.00000000       0.000
   0.00000000  0.60185188  0.00000000       0.000
   0.00000000  0.60269362  0.00000000       0.000
   0.00000000  0.60353536  0.00000000       0.000
   0.00000000  0.60437716  0.00000000       0.000
   0.00000000  0.60521882  0.00000000       0.000
   0.00000000  0.60606062  0.00000000       0.000
   0.00000000  0.60690236  0.00000000       0.000
   0.00000000  0.60774410  0.00000000       0.000
   0.00000000  0.60858590  0.00000000       0.000
   0.00000000  0.60942764  0.00000000       0.000
   0.00000000  0.61026936  0.00000000       0.000
   0.00000000  0.61111110  0.00000000       0.000
   0.00000000  0.61195284  0.00000000       0.000
   0.00000000  0.61279464  0.00000000       0.000
   0.00000000  0.61363638  0.00000000       0.000
   0.00000000  0.61447812  0.00000000       0.000
   0.00000000  0.61531990  0.00000000       0.000
   0.00000000  0.61616164  0.00000000       0.000
   0.00000000  0.61700338  0.00000000       0.000
   0.00000000  0.61784512  0.00000000       0.000
   0.00000000  0.61868686  0.00000000       0.000
   0.00000000  0.61952866  0.00000000       0.000
   0.00000000  0.62037038  0.00000000       0.000
   0.00000000  0.62121212  0.00000000       0.000
   0.00000000  0.62205392  0.00000000       0.000
   0.00000000  0.62289560  0.00000000       0.000
   0.00000000  0.62373740  0.00000000       0.000
   0.00000000  0.62457914  0.00000000       0.000
   0.00000000  0.62542086  0.00000000       0.000
   0.00000000  0.62626266  0.00000000       0.000
   0.00000000  0.62710440  0.00000000       0.000
   0.00000000  0.62794614  0.00000000       0.000
   0.00000000  0.62878788  0.00000000       0.000
   0.00000000  0.62962962  0.00000000       0.000
   0.00000000  0.63047140  0.00000000       0.000
   0.00000000  0.63131314  0.00000000       0.000
   0.00000000  0.63215488  0.00000000       0.000
   0.00000000  0.63299668  0.00000000       0.000
   0.00000000  0.63383842  0.00000000       0.000
   0.00000000  0.63468016  0.00000000       0.000
   0.00000000  0.63552188  0.00000000       0.000
   0.00000000  0.63636362  0.00000000       0.000
   0.00000000  0.63720542  0.00000000       0.000
   0.00000000  0.63804716  0.00000000       0.000
   0.00000000  0.63888890  0.00000000       0.000
   0.00000000  0.63973070  0.00000000       0.000
   0.00000000  0.64057236  0.00000000       0.000
   0.00000000  0.64141416  0.00000000       0.000
   0.00000000  0.64225590  0.00000000       0.000
   0.00000000  0.64309764  0.00000000       0.000
   0.00000000  0.64393944  0.00000000       0.000
   0.00000000  0.64478118  0.00000000       0.000
   0.00000000  0.64562290  0.00000000       0.000
   0.00000000  0.64646464  0.00000000       0.000
   0.00000000  0.64730638  0.00000000       0.000
   0.00000000  0.64814818  0.00000000       0.000
   0.00000000  0.64898992  0.00000000       0.000
   0.00000000  0.64983166  0.00000000       0.000
   0.00000000  0.65067344  0.00000000       0.000
   0.00000000  0.65151518  0.00000000       0.000
   0.00000000  0.65235692  0.00000000       0.000
   0.00000000  0.65319866  0.00000000       0.000
   0.00000000  0.65404040  0.00000000       0.000
   0.00000000  0.65488220  0.00000000       0.000
   0.00000000  0.65572392  0.00000000       0.000
   0.00000000  0.65656566  0.00000000       0.000
   0.00000000  0.65740746  0.00000000       0.000
   0.00000000  0.65824920  0.00000000       0.000
   0.00000000  0.65909094  0.00000000       0.000
   0.00000000  0.65993268  0.00000000       0.000
   0.00000000  0.66077440  0.00000000       0.000
   0.00000000  0.66161620  0.00000000       0.000
   0.00000000  0.66245794  0.00000000       0.000
   0.00000000  0.66329968  0.00000000       0.000
   0.00000000  0.66414148  0.00000000       0.000
   0.00000000  0.66498316  0.00000000       0.000
   0.00000000  0.66582494  0.00000000       0.000
   0.00000000  0.66666668  0.00000000       0.000
   0.00000000  0.66750842  0.00000000       0.000
   0.00000000  0.66835022  0.00000000       0.000
   0.00000000  0.66919196  0.00000000       0.000
   0.00000000  0.67003370  0.00000000       0.000
   0.00000000  0.67087544  0.00000000       0.000
   0.00000000  0.67171716  0.00000000       0.000
   0.00000000  0.67255896  0.00000000       0.000
   0.00000000  0.67340070  0.00000000       0.000
   0.00000000  0.67424244  0.00000000       0.000
   0.00000000  0.67508424  0.00000000       0.000
   0.00000000  0.67592598  0.00000000       0.000
   0.00000000  0.67676770  0.00000000       0.000
   0.00000000  0.67760944  0.00000000       0.000
   0.00000000  0.67845118  0.00000000       0.000
   0.00000000  0.67929298  0.00000000       0.000
   0.00000000  0.68013472  0.00000000       0.000
   0.00000000  0.68097646  0.00000000       0.000
   0.00000000  0.68181824  0.00000000       0.000
   0.00000000  0.68265992  0.00000000       0.000
   0.00000000  0.68350172  0.00000000       0.000
   0.00000000  0.68434346  0.00000000       0.000
   0.00000000  0.68518520  0.00000000       0.000
   0.00000000  0.68602700  0.00000000       0.000
   0.00000000  0.68686872  0.00000000       0.000
   0.00000000  0.68771046  0.00000000       0.000
   0.00000000  0.68855220  0.00000000       0.000
   0.00000000  0.68939394  0.00000000       0.000
   0.00000000  0.69023574  0.00000000       0.000
   0.00000000  0.69107748  0.00000000       0.000
   0.00000000  0.69191920  0.00000000       0.000
   0.00000000  0.69276100  0.00000000       0.000
   0.00000000  0.69360274  0.00000000       0.000
   0.00000000  0.69444442  0.00000000       0.000
   0.00000000  0.69528622  0.00000000       0.000
   0.00000000  0.69612796  0.00000000       0.000
   0.00000000  0.69696968  0.00000000       0.000
   0.00000000  0.69781148  0.00000000       0.000
   0.00000000  0.69865322  0.00000000       0.000
   0.00000000  0.69949502  0.00000000       0.000
   0.00000000  0.70033670  0.00000000       0.000
   0.00000000  0.70117844  0.00000000       0.000
   0.00000000  0.70202022  0.00000000       0.000
   0.00000000  0.70286196  0.00000000       0.000
   0.00000000  0.70370370  0.00000000       0.000
   0.00000000  0.70454550  0.00000000       0.000
   0.00000000  0.70538724  0.00000000       0.000
   0.00000000  0.70622898  0.00000000       0.000
   0.00000000  0.70707070  0.00000000       0.000
   0.00000000  0.70791244  0.00000000       0.000
   0.00000000  0.70875424  0.00000000       0.000
   0.00000000  0.70959598  0.00000000       0.000
   0.00000000  0.71043772  0.00000000       0.000
   0.00000000  0.71127952  0.00000000       0.000
   0.00000000  0.71212124  0.00000000       0.000
   0.00000000  0.71296298  0.00000000       0.000
   0.00000000  0.71380478  0.00000000       0.000
   0.00000000  0.71464646  0.00000000       0.000
   0.00000000  0.71548820  0.00000000       0.000
   0.00000000  0.71632994  0.00000000       0.000
   0.00000000  0.71717172  0.00000000       0.000
   0.00000000  0.71801346  0.00000000       0.000
   0.00000000  0.71885520  0.00000000       0.000
   0.00000000  0.71969700  0.00000000       0.000
   0.00000000  0.72053874  0.00000000       0.000
   0.00000000  0.72138048  0.00000000       0.000
   0.00000000  0.72222226  0.00000000       0.000
   0.00000000  0.72306400  0.00000000       0.000
   0.00000000  0.72390574  0.00000000       0.000
   0.00000000  0.72474754  0.00000000       0.000
   0.00000000  0.72558928  0.00000000       0.000
   0.00000000  0.72643096  0.00000000       0.000
   0.00000000  0.72727268  0.00000000       0.000
   0.00000000  0.72811448  0.00000000       0.000
   0.00000000  0.72895622  0.00000000       0.000
   0.00000000  0.72979796  0.00000000       0.000
   0.00000000  0.73063976  0.00000000       0.000
   0.00000000  0.73148150  0.00000000       0.000
   0.00000000  0.73232322  0.00000000       0.000
   0.00000000  0.73316502  0.00000000       0.000
   0.00000000  0.73400676  0.00000000       0.000
   0.00000000  0.73484850  0.00000000       0.000
   0.00000000  0.73569030  0.00000000       0.000
   0.00000000  0.73653204  0.00000000       0.000
   0.00000000  0.73737376  0.00000000       0.000
   0.00000000  0.73821544  0.00000000       0.000
   0.00000000  0.73905724  0.00000000       0.000
   0.00000000  0.73989898  0.00000000       0.000
   0.00000000  0.74074072  0.00000000       0.000
   0.00000000  0.74158252  0.00000000       0.000
   0.00000000  0.74242424  0.00000000       0.000
   0.00000000  0.74326598  0.00000000       0.000
   0.00000000  0.74410778  0.00000000       0.000
   0.00000000  0.74494952  0.00000000       0.000
   0.00000000  0.74579126  0.00000000       0.000
   0.00000000  0.74663306  0.00000000       0.000
   0.00000000  0.74747478  0.00000000       0.000
   0.00000000  0.74831652  0.00000000       0.000
   0.00000000  0.74915832  0.00000000       0.000
   0.00000000  0.75000000  0.00000000       0.000
   0.00000000  0.75084174  0.00000000       0.000
   0.00000000  0.75168348  0.00000000       0.000
   0.00000000  0.75252526  0.00000000       0.000
   0.00000000  0.75336700  0.00000000       0.000
   0.00000000  0.75420874  0.00000000       0.000
   0.00000000  0.75505054  0.00000000       0.000
   0.00000000  0.75589228  0.00000000       0.000
   0.00000000  0.75673402  0.00000000       0.000
   0.00000000  0.75757580  0.00000000       0.000
   0.00000000  0.75841754  0.00000000       0.000
   0.00000000  0.75925928  0.00000000       0.000
   0.00000000  0.76010108  0.00000000       0.000
   0.00000000  0.76094282  0.00000000       0.000
   0.00000000  0.76178450  0.00000000       0.000
   0.00000000  0.76262624  0.00000000       0.000
   0.00000000  0.76346802  0.00000000       0.000
   0.00000000  0.76430976  0.00000000       0.000
   0.00000000  0.76515150  0.00000000       0.000
   0.00000000  0.76599330  0.00000000       0.000
   0.00000000  0.76683504  0.00000000       0.000
   0.00000000  0.76767678  0.00000000       0.000
   0.00000000  0.76851856  0.00000000       0.000
   0.00000000  0.76936030  0.00000000       0.000
   0.00000000  0.77020204  0.00000000       0.000
   0.00000000  0.77104384  0.00000000       0.000
   0.00000000  0.77188558  0.00000000       0.000
   0.00000000  0.77272732  0.00000000       0.000
   0.00000000  0.77356898  0.00000000       0.000
   0.00000000  0.77441078  0.00000000       0.000
   0.00000000  0.77525252  0.00000000       0.000
   0.00000000  0.77609426  0.00000000       0.000
   0.00000000  0.77693606  0.00000000       0.000
   0.00000000  0.77777780  0.00000000       0.000
   0.00000000  0.77861952  0.00000000       0.000
   0.00000000  0.77946132  0.00000000       0.000
   0.00000000  0.78030306  0.00000000       0.000
   0.00000000  0.78114480  0.00000000       0.000
   0.00000000  0.78198660  0.00000000       0.000
   0.00000000  0.78282834  0.00000000       0.000
   0.00000000  0.78367006  0.00000000       0.000
   0.00000000  0.78451186  0.00000000       0.000
   0.00000000  0.78535354  0.00000000       0.000
   0.00000000  0.78619528  0.00000000       0.000
   0.00000000  0.78703702  0.00000000       0.000
   0.00000000  0.78787882  0.00000000       0.000
   0.00000000  0.78872054  0.00000000       0.000
   0.00000000  0.78956228  0.00000000       0.000
   0.00000000  0.79040408  0.00000000       0.000
   0.00000000  0.79124582  0.00000000       0.000
   0.00000000  0.79208756  0.00000000       0.000
   0.00000000  0.79292936  0.00000000       0.000
   0.00000000  0.79377108  0.00000000       0.000
   0.00000000  0.79461282  0.00000000       0.000
   0.00000000  0.79545462  0.00000000       0.000
   0.00000000  0.79629636  0.00000000       0.000
   0.00000000  0.79713804  0.00000000       0.000
   0.00000000  0.79797978  0.00000000       0.000
   0.00000000  0.79882156  0.00000000       0.000
   0.00000000  0.79966330  0.00000000       0.000
   0.00000000  0.80050504  0.00000000       0.000
   0.00000000  0.80134684  0.00000000       0.000
   0.00000000  0.80218858  0.00000000       0.000
   0.00000000  0.80303032  0.00000000       0.000
   0.00000000  0.80387210  0.00000000       0.000
   0.00000000  0.80471384  0.00000000       0.000
   0.00000000  0.80555558  0.00000000       0.000
   0.00000000  0.80639738  0.00000000       0.000
   0.00000000  0.80723912  0.00000000       0.000
   0.00000000  0.80808086  0.00000000       0.000
   0.00000000  0.80892252  0.00000000       0.000
   0.00000000  0.80976426  0.00000000       0.000
   0.00000000  0.81060606  0.00000000       0.000
   0.00000000  0.81144780  0.00000000       0.000
   0.00000000  0.81228960  0.00000000       0.000
   0.00000000  0.81313134  0.00000000       0.000
   0.00000000  0.81397306  0.00000000       0.000
   0.00000000  0.81481486  0.00000000       0.000
   0.00000000  0.81565660  0.00000000       0.000
   0.00000000  0.81649834  0.00000000       0.000
   0.00000000  0.81734014  0.00000000       0.000
   0.00000000  0.81818188  0.00000000       0.000
   0.00000000  0.81902360  0.00000000       0.000
   0.00000000  0.81986540  0.00000000       0.000
   0.00000000  0.82070702  0.00000000       0.000
   0.00000000  0.82154882  0.00000000       0.000
   0.00000000  0.82239056  0.00000000       0.000
   0.00000000  0.82323230  0.00000000       0.000
   0.00000000  0.82407408  0.00000000       0.000
   0.00000000  0.82491582  0.00000000       0.000
   0.00000000  0.82575756  0.00000000       0.000
   0.00000000  0.82659936  0.00000000       0.000
   0.00000000  0.82744110  0.00000000       0.000
   0.00000000  0.82828284  0.00000000       0.000
   0.00000000  0.82912462  0.00000000       0.000
   0.00000000  0.82996636  0.00000000       0.000
   0.00000000  0.83080816  0.00000000       0.000
   0.00000000  0.83164990  0.00000000       0.000
   0.00000000  0.83249158  0.00000000       0.000
   0.00000000  0.83333332  0.00000000       0.000
   0.00000000  0.83417506  0.00000000       0.000
   0.00000000  0.83501684  0.00000000       0.000
   0.00000000  0.83585858  0.00000000       0.000
   0.00000000  0.83670032  0.00000000       0.000
   0.00000000  0.83754212  0.00000000       0.000
   0.00000000  0.83838386  0.00000000       0.000
   0.00000000  0.83922560  0.00000000       0.000
   0.00000000  0.84006738  0.00000000       0.000
   0.00000000  0.84090912  0.00000000       0.000
   0.00000000  0.84175086  0.00000000       0.000
   0.00000000  0.84259266  0.00000000       0.000
   0.00000000  0.84343440  0.00000000       0.000
   0.00000000  0.84427608  0.00000000       0.000
   0.00000000  0.84511780  0.00000000       0.000
   0.00000000  0.84595960  0.00000000       0.000
   0.00000000  0.84680134  0.00000000       0.000
   0.00000000  0.84764308  0.00000000       0.000
   0.00000000  0.84848488  0.00000000       0.000
   0.00000000  0.84932662  0.00000000       0.000
   0.00000000  0.85016834  0.00000000       0.000
   0.00000000  0.85101014  0.00000000       0.000
   0.00000000  0.85185188  0.00000000       0.000
   0.00000000  0.85269362  0.00000000       0.000
   0.00000000  0.85353542  0.00000000       0.000
   0.00000000  0.85437716  0.00000000       0.000
   0.00000000  0.85521888  0.00000000       0.000
   0.00000000  0.85606056  0.00000000       0.000
   0.00000000  0.85690236  0.00000000       0.000
   0.00000000  0.85774410  0.00000000       0.000
   0.00000000  0.85858584  0.00000000       0.000
   0.00000000  0.85942764  0.00000000       0.000
   0.00000000  0.86026936  0.00000000       0.000
   0.00000000  0.86111110  0.00000000       0.000
   0.00000000  0.86195290  0.00000000       0.000
   0.00000000  0.86279464  0.00000000       0.000
   0.00000000  0.86363638  0.00000000       0.000
   0.00000000  0.86447818  0.00000000       0.000
   0.00000000  0.86531990  0.00000000       0.000
   0.00000000  0.86616164  0.00000000       0.000
   0.00000000  0.86700344  0.00000000       0.000
   0.00000000  0.86784518  0.00000000       0.000
   0.00000000  0.86868686  0.00000000       0.000
   0.00000000  0.86952860  0.00000000       0.000
   0.00000000  0.87037038  0.00000000       0.000
   0.00000000  0.87121212  0.00000000       0.000
   0.00000000  0.87205386  0.00000000       0.000
   0.00000000  0.87289566  0.00000000       0.000
   0.00000000  0.87373740  0.00000000       0.000
   0.00000000  0.87457914  0.00000000       0.000
   0.00000000  0.87542092  0.00000000       0.000
   0.00000000  0.87626266  0.00000000       0.000
   0.00000000  0.87710440  0.00000000       0.000
   0.00000000  0.87794620  0.00000000       0.000
   0.00000000  0.87878794  0.00000000       0.000
   0.00000000  0.87962968  0.00000000       0.000
   0.00000000  0.88047134  0.00000000       0.000
   0.00000000  0.88131314  0.00000000       0.000
   0.00000000  0.88215488  0.00000000       0.000
   0.00000000  0.88299662  0.00000000       0.000
   0.00000000  0.88383842  0.00000000       0.000
   0.00000000  0.88468016  0.00000000       0.000
   0.00000000  0.88552188  0.00000000       0.000
   0.00000000  0.88636368  0.00000000       0.000
   0.00000000  0.88720542  0.00000000       0.000
   0.00000000  0.88804716  0.00000000       0.000
   0.00000000  0.88888896  0.00000000       0.000
   0.00000000  0.88973070  0.00000000       0.000
   0.00000000  0.89057242  0.00000000       0.000
   0.00000000  0.89141422  0.00000000       0.000
   0.00000000  0.89225590  0.00000000       0.000
   0.00000000  0.89309764  0.00000000       0.000
   0.00000000  0.89393938  0.00000000       0.000
   0.00000000  0.89478118  0.00000000       0.000
   0.00000000  0.89562290  0.00000000       0.000
   0.00000000  0.89646464  0.00000000       0.000
   0.00000000  0.89730644  0.00000000       0.000
   0.00000000  0.89814818  0.00000000       0.000
   0.00000000  0.89898992  0.00000000       0.000
   0.00000000  0.89983172  0.00000000       0.000
   0.00000000  0.90067344  0.00000000       0.000
   0.00000000  0.90151518  0.00000000       0.000
   0.00000000  0.90235698  0.00000000       0.000
   0.00000000  0.90319872  0.00000000       0.000
   0.00000000  0.90404040  0.00000000       0.000
   0.00000000  0.90488214  0.00000000       0.000
   0.00000000  0.90572392  0.00000000       0.000
   0.00000000  0.90656566  0.00000000       0.000
   0.00000000  0.90740740  0.00000000       0.000
   0.00000000  0.90824920  0.00000000       0.000
   0.00000000  0.90909094  0.00000000       0.000
   0.00000000  0.90993268  0.00000000       0.000
[...]
      1      -8.4000      2.00000
      2      -5.6701      2.00000
      3      -5.6556      2.00000
      4      -5.6556      2.00000
      5      -5.5199      2.00000
      6      -5.0961      2.00000
      7      -2.1067      2.00000
      8       0.3536      2.00000
      9       0.3536      2.00000
     10       4.7078      0.00000
     11       4.8299      0.00000
     12      10.9441      0.00000
     13      11.2940      0.00000
     14      11.2940      0.00000
     15      13.0349      0.00000
     16      13.7518      0.00000

 k-point  1190 :       0.4937    0.0000    0.4937
  band No.  band energies     occupation 
      1      -8.4000      2.00000
      2      -5.6701      2.00000
      3      -5.6555      2.00000
      4      -5.6555      2.00000
      5      -5.5199      2.00000
      6      -5.0960      2.00000
      7      -2.1069      2.00000
      8       0.3535      2.00000
      9       0.3535      2.00000
     10       4.7078      0.00000
     11       4.8297      0.00000
     12      10.9446      0.00000
     13      11.2946      0.00000
     14      11.2946      0.00000
     15      13.0351      0.00000
     16      13.7511      0.00000

 k-point  1191 :       0.4941    0.0000    0.4941
  band No.  band energies     occupation 
      1      -8.4000      2.00000
      2      -5.6701      2.00000
      3      -5.6555      2.00000
      4      -5.6555      2.00000
      5      -5.5199      2.00000
      6      -5.0959      2.00000
      7      -2.1071      2.00000
      8       0.3535      2.00000
      9       0.3535      2.00000
     10       4.7079      0.00000
     11       4.8295      0.00000
     12      10.9451      0.00000
     13      11.2952      0.00000
     14      11.2952      0.00000
     15      13.0352      0.00000
     16      13.7505      0.00000

 k-point  1192 :       0.4945    0.0000    0.4945
  band No.  band energies     occupation 
      1      -8.3999      2.00000
      2      -5.6701      2.00000
      3      -5.6555      2.00000
      4      -5.6555      2.00000
      5      -5.5199      2.00000
      6      -5.0959      2.00000
      7      -2.1073      2.00000
      8       0.3534      2.00000
      9       0.3534      2.00000
     10       4.7079      0.00000
     11       4.8293      0.00000
     12      10.9455      0.00000
     13      11.2957      0.00000
     14      11.2957      0.00000
     15      13.0353      0.00000
     16      13.7499      0.00000

 k-point  1193 :       0.4949    0.0000    0.4949
  band No.  band energies     occupation 
      1      -8.3999      2.00000
      2      -5.6701      2.00000
      3      -5.6555      2.00000
      4      -5.6555      2.00000
      5      -5.5199      2.00000
      6      -5.0958      2.00000
      7      -2.1075      2.00000
      8       0.3533      2.00000
      9       0.3533      2.00000
     10       4.7080      0.00000
     11       4.8292      0.00000
     12      10.9459      0.00000
     13      11.2962      0.00000
     14      11.2962      0.00000
     15      13.0355      0.00000
     16      13.7493      0.00000

 k-point  1194 :       0.4954    0.0000    0.4954
  band No.  band energies     occupation 
      1      -8.3999      2.00000
      2      -5.6701      2.00000
      3      -5.6555      2.00000
      4      -5.6555      2.00000
      5      -5.5199      2.00000
      6      -5.0957      2.00000
      7      -2.1076      2.00000
      8       0.3533      2.00000
      9       0.3533      2.00000
     10       4.7080      0.00000
     11       4.8290      0.00000
     12      10.9463      0.00000
     13      11.2966      0.00000
     14      11.2966      0.00000
     15      13.0356      0.00000
     16      13.7488      0.00000

 k-point  1195 :       0.4958    0.0000    0.4958
  band No.  band energies     occupation 
      1      -8.3999      2.00000
      2      -5.6701      2.00000
      3      -5.6555      2.00000
      4      -5.6555      2.00000
      5      -5.5199      2.00000
      6      -5.0957      2.00000
      7      -2.1077      2.00000
      8       0.3532      2.00000
      9       0.3532      2.00000
     10       4.7080      0.00000
     11       4.8289      0.00000
     12      10.9467      0.00000
     13      11.2970      0.00000
     14      11.2970      0.00000
     15      13.0357      0.00000
     16      13.7484      0.00000

 k-point  1196 :       0.4962    0.0000    0.4962
  band No.  band energies     occupation 
      1      -8.3999      2.00000
      2      -5.6701      2.00000
      3      -5.6555      2.00000
      4      -5.6555      2.00000
      5      -5.5199      2.00000
      6      -5.0956      2.00000
      7      -2.1079      2.00000
      8       0.3532      2.00000
      9       0.3532      2.00000
     10       4.7080      0.00000
     11       4.8288      0.00000
     12      10.9470      0.00000
     13      11.2974      0.00000
     14      11.2974      0.00000
     15      13.0358      0.00000
     16      13.7480      0.00000

 k-point  1197 :       0.4966    0.0000    0.4966
  band No.  band energies     occupation 
      1      -8.3998      2.00000
      2      -5.6701      2.00000
      3      -5.6555      2.00000
      4      -5.6555      2.00000
      5      -5.5199      2.00000
      6      -5.0956      2.00000
      7      -2.1080      2.00000
      8       0.3531      2.00000
      9       0.3531      2.00000
     10       4.7081      0.00000
     11       4.8287      0.00000
     12      10.9472      0.00000
     13      11.2977      0.00000
     14      11.2977      0.00000
     15      13.0359      0.00000
     16      13.7476      0.00000

 k-point  1198 :       0.4971    0.0000    0.4971
  band No.  band energies     occupation 
      1      -8.3998      2.00000
      2      -5.6701      2.00000
      3      -5.6555      2.00000
      4      -5.6555      2.00000
      5      -5.5199      2.00000
      6      -5.0955      2.00000
      7      -2.1081      2.00000
      8       0.3531      2.00000
      9       0.3531      2.00000
     10       4.7081      0.00000
     11       4.8286      0.00000
     12      10.9475      0.00000
     13      11.2980      0.00000
     14      11.2980      0.00000
     15      13.0360      0.00000
     16      13.7472      0.00000

 k-point  1199 :       0.4975    0.0000    0.4975
  band No.  band energies     occupation 
      1      -8.3998      2.00000
      2      -5.6701      2.00000
      3      -5.6555      2.00000
      4      -5.6555      2.00000
      5      -5.5199      2.00000
      6      -5.0955      2.00000
      7      -2.1081      2.00000
      8       0.3531      2.00000
      9       0.3531      2.00000
     10       4.7081      0.00000
     11       4.8285      0.00000
     12      10.9477      0.00000
     13      11.2982      0.00000
     14      11.2982      0.00000
     15      13.0360      0.00000
     16      13.7470      0.00000

 k-point  1200 :       0.4979    0.0000    0.4979
  band No.  band energies     occupation 
      1      -8.3998      2.00000
      2      -5.6701      2.00000
      3      -5.6555      2.00000
      4      -5.6555      2.00000
      5      -5.5199      2.00000
      6      -5.0955      2.00000
      7      -2.1082      2.00000
      8       0.3530      2.00000
      9       0.3530      2.00000
     10       4.7081      0.00000
     11       4.8284      0.00000
     12      10.9479      0.00000
     13      11.2984      0.00000
     14      11.2985      0.00000
     15      13.0361      0.00000
     16      13.7467      0.00000

 k-point  1201 :       0.4983    0.0000    0.4983
  band No.  band energies     occupation 
      1      -8.3998      2.00000
      2      -5.6701      2.00000
      3      -5.6555      2.00000
      4      -5.6555      2.00000
      5      -5.5199      2.00000
      6      -5.0954      2.00000
      7      -2.1083      2.00000
      8       0.3530      2.00000
      9       0.3530      2.00000
     10       4.7081      0.00000
     11       4.8284      0.00000
     12      10.9480      0.00000
     13      11.2986      0.00000
     14      11.2986      0.00000
     15      13.0361      0.00000
     16      13.7465      0.00000

 k-point  1202 :       0.4987    0.0000    0.4987
  band No.  band energies     occupation 
      1      -8.3998      2.00000
      2      -5.6701      2.00000
      3      -5.6555      2.00000
      4      -5.6555      2.00000
      5      -5.5199      2.00000
      6      -5.0954      2.00000
      7      -2.1083      2.00000
      8       0.3530      2.00000
      9       0.3530      2.00000
     10       4.7082      0.00000
     11       4.8283      0.00000
     12      10.9481      0.00000
     13      11.2988      0.00000
     14      11.2988      0.00000
     15      13.0362      0.00000
     16      13.7464      0.00000

 k-point  1203 :       0.4992    0.0000    0.4992
  band No.  band energies     occupation 
      1      -8.3998      2.00000
      2      -5.6701      2.00000
      3      -5.6555      2.00000
      4      -5.6555      2.00000
      5      -5.5199      2.00000
      6      -5.0954      2.00000
      7      -2.1084      2.00000
      8       0.3530      2.00000
      9       0.3530      2.00000
     10       4.7082      0.00000
     11       4.8283      0.00000
     12      10.9482      0.00000
     13      11.2989      0.00000
     14      11.2989      0.00000
     15      13.0362      0.00000
     16      13.7462      0.00000

 k-point  1204 :       0.4996    0.0000    0.4996
  band No.  band energies     occupation 
      1      -8.3998      2.00000
      2      -5.6701      2.00000
      3      -5.6555      2.00000
      4      -5.6555      2.00000
      5      -5.5199      2.00000
      6      -5.0954      2.00000
      7      -2.1084      2.00000
      8       0.3530      2.00000
      9       0.3530      2.00000
     10       4.7082      0.00000
     11       4.8283      0.00000
     12      10.9483      0.00000
     13      11.2989      0.00000
     14      11.2989      0.00000
     15      13.0362      0.00000
     16      13.7462      0.00000


--------------------------------------------------------------------------------------------------------


 soft charge-density along one line, spin component           1
         0         1         2         3         4         5         6         7         8         9
 total charge-density along one line
 
 pseudopotential strength for first ion, spin component:           1
-17.748   0.000   0.000   0.000   0.000 -17.795   0.000   0.000
  0.000 -17.748   0.000  -0.000  -0.000   0.000 -17.795   0.000
  0.000   0.000 -17.747   0.000  -0.000   0.000   0.000 -17.794
  0.000  -0.000   0.000 -17.748   0.000   0.000  -0.000   0.000
  0.000  -0.000  -0.000   0.000 -17.747   0.000  -0.000  -0.000
-17.795   0.000   0.000   0.000   0.000 -17.822   0.000   0.000
  0.000 -17.795   0.000  -0.000  -0.000   0.000 -17.822   0.000
  0.000   0.000 -17.794   0.000  -0.000   0.000   0.000 -17.821
  0.000  -0.000   0.000 -17.795   0.000   0.000  -0.000   0.000
  0.000  -0.000  -0.000   0.000 -17.794   0.000  -0.000  -0.000
  0.000  -0.000  -0.000  -0.000  -0.000   0.000  -0.000  -0.000
  0.000  -0.000  -0.000  -0.000  -0.000   0.000  -0.000  -0.000
 -0.000   0.000  -0.000  -0.001  -0.000  -0.000   0.000  -0.000
 -0.001  -0.000  -0.000  -0.000  -0.000  -0.001  -0.000  -0.000
 -0.000  -0.001  -0.000   0.000   0.000  -0.000  -0.001  -0.000
 -0.000   0.000  -0.000  -0.001  -0.000  -0.000   0.000  -0.000
 -0.001  -0.000  -0.000  -0.000  -0.000  -0.001  -0.000  -0.000
 -0.000  -0.001  -0.000   0.000   0.000  -0.000  -0.001  -0.000
 total augmentation occupancy for first ion, spin component:           1
  2.000   0.000   0.000   0.000   0.000   0.000   0.000   0.000   0.000   0.000   0.000   0.000   0.000   0.000   0.000   0.000
  0.000   2.000   0.000   0.000   0.000   0.000   0.000   0.000   0.000   0.000   0.000   0.000   0.000   0.000   0.000   0.000
  0.000   0.000   2.000   0.000   0.000   0.000   0.000   0.000   0.000   0.000   0.000   0.000   0.000   0.000   0.000   0.000
  0.000   0.000   0.000   2.000   0.000   0.000   0.000   0.000   0.000   0.000   0.000   0.000   0.000   0.000   0.000   0.000
  0.000   0.000   0.000   0.000   2.000   0.000   0.000   0.000   0.000   0.000   0.000   0.000   0.000   0.000   0.000   0.000
  0.000   0.000   0.000   0.000   0.000   0.000   0.000   0.000   0.000   0.000   0.000   0.000   0.000   0.000   0.000   0.000
  0.000   0.000   0.000   0.000   0.000   0.000   0.000   0.000   0.000   0.000   0.000   0.000   0.000   0.000   0.000   0.000
  0.000   0.000   0.000   0.000   0.000   0.000   0.000   0.000   0.000   0.000   0.000   0.000   0.000   0.000   0.000   0.000
  0.000   0.000   0.000   0.000   0.000   0.000   0.000   0.000   0.000   0.000   0.000   0.000   0.000   0.000   0.000   0.000
  0.000   0.000   0.000   0.000   0.000   0.000   0.000   0.000   0.000   0.000   0.000   0.000   0.000   0.000   0.000   0.000
  0.000   0.000   0.000   0.000   0.000   0.000   0.000   0.000   0.000   0.000   2.000   0.000   0.000   0.000   0.000   0.000
  0.000   0.000   0.000   0.000   0.000   0.000   0.000   0.000   0.000   0.000   0.000   0.000   0.000   0.000   0.000   0.000
  0.000   0.000   0.000   0.000   0.000   0.000   0.000   0.000   0.000   0.000   0.000   0.000   0.000   0.000   0.000   0.000
  0.000   0.000   0.000   0.000   0.000   0.000   0.000   0.000   0.000   0.000   0.000   0.000   0.000   0.000   0.000   0.000
  0.000   0.000   0.000   0.000   0.000   0.000   0.000   0.000   0.000   0.000   0.000   0.000   0.000   0.000   0.000   0.000
  0.000   0.000   0.000   0.000   0.000   0.000   0.000   0.000   0.000   0.000   0.000   0.000   0.000   0.000   0.000   0.000
  0.000   0.000   0.000   0.000   0.000   0.000   0.000   0.000   0.000   0.000   0.000   0.000   0.000   0.000   0.000   0.000
  0.000   0.000   0.000   0.000   0.000   0.000   0.000   0.000   0.000   0.000   0.000   0.000   0.000   0.000   0.000   0.000


------------------------ aborting loop because EDIFF is reached ----------------------------------------


 


 total charge     
 
# of ion     s       p       d       tot
----------------------------------------
  1        0.473   0.320   9.522  10.315
  2        1.351   2.041   0.022   3.414
------------------------------------------------
tot        1.824   2.361   9.544  13.729
 
    CHARGE:  cpu time    0.0160: real time    0.0149
    FORLOC:  cpu time    0.0000: real time    0.0006
    FORNL :  cpu time    0.1280: real time    0.1274
    STRESS:  cpu time    1.5641: real time    1.5649
    FORCOR:  cpu time    0.0080: real time    0.0092
    FORHAR:  cpu time    0.0040: real time    0.0022
    OFIELD:  cpu time    0.0000: real time    0.0001

  FORCE on cell =-STRESS in cart. coord.  units (eV):
  Direction    XX          YY          ZZ          XY          YZ          ZX
  --------------------------------------------------------------------------------------
  Alpha Z    50.17222    50.17222    50.17222
  Ewald    -348.27726  -348.27726  -348.27726     0.00000     0.00000     0.00000
  Hartree   166.39054   166.39054   166.39054     0.00000    -0.00000    -0.00000
  E(xc)     -86.51613   -86.51613   -86.51613    -0.00000     0.00000     0.00000
  Local     -18.13000   -18.13000   -18.13000     0.00001    -0.00001    -0.00001
  n-local    21.77380    27.04899    26.17482    -1.74284    -3.04445    -1.13548
  augment     5.57736     5.57736     5.57736    -0.00001     0.00001     0.00001
  Kinetic   200.21809   203.72155   203.96489    -1.61817    -3.08908    -1.23070
  Fock        0.00000     0.00000     0.00000     0.00000     0.00000     0.00000
  -------------------------------------------------------------------------------------
  Total      -3.14923    -3.14923    -3.14923     0.00000    -0.00000     0.00000
  in kB     -74.08111   -74.08111   -74.08111     0.00000    -0.00000     0.00000
  external pressure =      -74.08 kB  Pullay stress =        0.00 kB


 VOLUME and BASIS-vectors are now :
 -----------------------------------------------------------------------------
  energy-cutoff  :      500.00
  volume of cell :       68.11
      direct lattice vectors                 reciprocal lattice vectors
     3.241350000  3.241350000  0.000000000     0.154256714  0.154256714  0.154256714
     3.241350000  0.000000000 -3.241350000     0.154256714 -0.154256714 -0.154256714
     0.000000000  3.241350000 -3.241350000    -0.154256714  0.154256714 -0.154256714

  length of vectors
     4.583961130  4.583961130  4.583961130     0.267180466  0.267180466  0.267180466


 FORCES acting on ions
    electron-ion (+dipol)            ewald-force                    non-local-force                 convergence-correction
 -----------------------------------------------------------------------------------------------
   -.322E-06 -.323E-06 0.323E-06   -.744E-14 -.454E-14 0.998E-14   0.694E-16 0.763E-16 -.694E-16   0.552E-06 0.552E-06 0.550E-06
   0.157E-06 0.163E-06 -.163E-06   0.759E-14 0.606E-14 -.102E-13   0.142E-15 0.125E-15 -.222E-15   0.131E-06 0.131E-06 0.131E-06
 -----------------------------------------------------------------------------------------------
   -.165E-06 -.160E-06 0.160E-06   0.152E-15 0.152E-14 -.238E-15   0.212E-15 0.201E-15 -.291E-15   0.683E-06 0.683E-06 0.680E-06
 
 
 POSITION                                       TOTAL-FORCE (eV/Angst)
 -----------------------------------------------------------------------------------
      0.00000      0.00000      0.00000         0.000000     -0.000000      0.000000
      1.62068      1.62068     -1.62068        -0.000000      0.000000     -0.000000
 -----------------------------------------------------------------------------------
    total drift:                                0.000001      0.000001      0.000001


--------------------------------------------------------------------------------------------------------



  FREE ENERGIE OF THE ION-ELECTRON SYSTEM (eV)
  ---------------------------------------------------
  free  energy   TOTEN  =        -5.49325799 eV

  energy  without entropy=       -5.49325799  energy(sigma->0) =       -5.49325799
 


--------------------------------------------------------------------------------------------------------


    POTLOK:  cpu time    0.0120: real time    0.0123


--------------------------------------------------------------------------------------------------------




--------------------------------------------------------------------------------------------------------


 writing wavefunctions
     LOOP+:  cpu time   20.3773: real time   21.0684
    4ORBIT:  cpu time    0.0000: real time    0.0000
 


 total charge     
 
# of ion     s       p       d       tot
----------------------------------------
  1        0.473   0.320   9.522  10.315
  2        1.351   2.041   0.022   3.414
------------------------------------------------
tot        1.824   2.361   9.544  13.729
 

 total amount of memory used by VASP on root node   160677. kBytes
========================================================================

   base      :      30000. kBytes
   nonl-proj :     104035. kBytes
   fftplans  :        768. kBytes
   grid      :       1202. kBytes
   one-center:         15. kBytes
   wavefun   :      24657. kBytes
 
  
  
 General timing and accounting informations for this job:
 ========================================================
  
                  Total CPU time used (sec):       30.062
                            User time (sec):       23.837
                          System time (sec):        6.224
                         Elapsed time (sec):       32.210
  
                   Maximum memory used (kb):      156312.
                   Average memory used (kb):           0.
  
                          Minor page faults:        39516
                          Major page faults:            0
                 Voluntary context switches:         1193
