 running on   96 total cores
 distrk:  each k-point on   24 cores,    4 groups
 distr:  one band on    6 cores,    4 groups
 using from now: INCAR     
 vasp.5.4.1 24Jun15 (build Nov 25 2015 16:01:35) complex                        
  
 POSCAR found type information on POSCAR  Cd Te
 POSCAR found :  2 types and       2 ions
 scaLAPACK will be used

 ----------------------------------------------------------------------------- 
|                                                                             |
|           W    W    AA    RRRRR   N    N  II  N    N   GGGG   !!!           |
|           W    W   A  A   R    R  NN   N  II  NN   N  G    G  !!!           |
|           W    W  A    A  R    R  N N  N  II  N N  N  G       !!!           |
|           W WW W  AAAAAA  RRRRR   N  N N  II  N  N N  G  GGG   !            |
|           WW  WW  A    A  R   R   N   NN  II  N   NN  G    G                |
|           W    W  A    A  R    R  N    N  II  N    N   GGGG   !!!           |
|                                                                             |
|      You have enabled k-point parallelism (KPAR>1).                         |
|      This developmental code was originally  written by Paul Kent at ORNL,  |
|      and carefully double checked in Vienna.                                |
|      GW as well as linear response parallelism added by Martijn Marsman     |
|      and Georg Kresse.                                                      |
|      Carefully verify results versus KPAR=1.                                |
|      Report problems to Paul Kent and Vienna.                               |
|                                                                             |
 ----------------------------------------------------------------------------- 


 ----------------------------------------------------------------------------- 
|                                                                             |
|  ADVICE TO THIS USER RUNNING 'VASP/VAMP'   (HEAR YOUR MASTER'S VOICE ...):  |
|                                                                             |
|      You enforced a specific xc-type in the INCAR file,                     |
|      a different type was found on the POTCAR file                          |
|          I HOPE YOU KNOW, WHAT YOU ARE  DOING                               |
|                                                                             |
 ----------------------------------------------------------------------------- 

 LDA part: xc-table for Pade appr. of Perdew
 WARNING: stress and forces are not correct
 POSCAR, INCAR and KPOINTS ok, starting setup
 FFT: planning ...
 WAVECAR not read
 charge-density read from file: Name                                    
 WARNING: random wavefunctions but no delay for mixing, default for NELMDL
 entering main loop
       N       E                     dE             d eps       ncg     rms          rms(c)
DAV:   1     0.974782205187E+02    0.97478E+02   -0.82221E+03 38904   0.946E+02
DAV:   2    -0.200971773736E+01   -0.99488E+02   -0.94971E+02 44112   0.234E+02
DAV:   3    -0.546466589362E+01   -0.34549E+01   -0.34510E+01 48472   0.453E+01
DAV:   4    -0.549319914074E+01   -0.28533E-01   -0.28532E-01 58416   0.370E+00
DAV:   5    -0.549325692769E+01   -0.57787E-04   -0.57787E-04 51280   0.159E-01
DAV:   6    -0.549325797465E+01   -0.10470E-05   -0.10469E-05 57328   0.157E-02
DAV:   7    -0.549325799132E+01   -0.16674E-07   -0.16639E-07 43392   0.170E-03
   1 F= -.54932580E+01 E0= -.54932580E+01  d E =-.549326E+01
 curvature:   0.00 expect dE= 0.000E+00 dE for cont linesearch  0.000E+00
 trial: gam= 0.00000 g(F)=  0.130E-46 g(S)=  0.718E+00 ort = 0.000E+00 (trialstep = 0.100E+01)
 search vector abs. value=  0.718E+00
 writing wavefunctions
Application 23184157 resources: utime ~3032s, stime ~39s, Rss ~156312, inblocks ~682867, outblocks ~1401965
