  96  96   0   0
  0.2080188E+02  0.1257760E-08  0.1245754E-08  0.1274818E-08  0.5000000E-15
  1.000000000000000E-004
  CAR 
 MAPbI3-Cubic                            
      8.89705764    -19.60881737  301      1.43802035      1.00000000
    -19.609  0.0000E+00  0.0000E+00
    -19.514  0.0000E+00  0.0000E+00
    -19.419  0.0000E+00  0.0000E+00
    -19.324  0.0000E+00  0.0000E+00
    -19.229  0.0000E+00  0.0000E+00
    -19.134  0.0000E+00  0.0000E+00
    -19.039  0.0000E+00  0.0000E+00
    -18.944  0.0000E+00  0.0000E+00
    -18.849  0.0000E+00  0.0000E+00
    -18.754  0.0000E+00  0.0000E+00
    -18.659  0.0000E+00  0.0000E+00
    -18.564  0.0000E+00  0.0000E+00
    -18.469  0.0000E+00  0.0000E+00
    -18.374  0.0000E+00  0.0000E+00
    -18.279  0.0000E+00  0.1600E+02
    -18.184  0.0000E+00  0.1600E+02
    -18.089  0.0000E+00  0.1600E+02
    -17.993  0.0000E+00  0.1600E+02
    -17.898  0.0000E+00  0.1600E+02
    -17.803  0.0000E+00  0.1600E+02
    -17.708  0.0000E+00  0.1600E+02
    -17.613  0.0000E+00  0.1600E+02
    -17.518  0.0000E+00  0.1600E+02
    -17.423  0.0000E+00  0.1600E+02
    -17.328  0.0000E+00  0.1600E+02
    -17.233  0.0000E+00  0.1600E+02
    -17.138  0.0000E+00  0.1600E+02
    -17.043  0.0000E+00  0.1600E+02
    -16.948  0.0000E+00  0.1600E+02
    -16.853  0.0000E+00  0.1600E+02
    -16.758  0.0000E+00  0.1600E+02
    -16.663  0.0000E+00  0.1600E+02
    -16.568  0.0000E+00  0.1600E+02
    -16.473  0.0000E+00  0.1600E+02
    -16.378  0.0000E+00  0.1600E+02
    -16.283  0.0000E+00  0.1600E+02
    -16.188  0.0000E+00  0.1600E+02
    -16.093  0.0000E+00  0.1600E+02
    -15.998  0.0000E+00  0.1600E+02
    -15.903  0.0000E+00  0.1600E+02
    -15.808  0.0000E+00  0.1600E+02
    -15.713  0.0000E+00  0.1600E+02
    -15.618  0.0000E+00  0.1600E+02
    -15.523  0.0000E+00  0.1600E+02
    -15.428  0.0000E+00  0.1600E+02
    -15.333  0.0000E+00  0.1600E+02
    -15.238  0.0000E+00  0.1600E+02
    -15.143  0.0000E+00  0.1600E+02
    -15.048  0.8091E+02  0.4695E+02
    -14.953  0.0000E+00  0.9600E+02
    -14.858  0.0000E+00  0.9600E+02
    -14.763  0.0000E+00  0.9600E+02
    -14.668  0.0000E+00  0.9600E+02
    -14.573  0.0000E+00  0.9600E+02
    -14.478  0.0000E+00  0.9600E+02
    -14.383  0.0000E+00  0.9600E+02
    -14.288  0.0000E+00  0.9600E+02
    -14.193  0.0000E+00  0.9600E+02
    -14.098  0.0000E+00  0.9600E+02
    -14.003  0.0000E+00  0.9600E+02
    -13.908  0.0000E+00  0.9600E+02
    -13.813  0.0000E+00  0.9600E+02
    -13.718  0.0000E+00  0.9600E+02
    -13.623  0.0000E+00  0.9600E+02
    -13.528  0.0000E+00  0.9600E+02
    -13.433  0.0000E+00  0.9600E+02
    -13.338  0.0000E+00  0.9600E+02
    -13.243  0.0000E+00  0.9600E+02
    -13.147  0.0000E+00  0.9600E+02
    -13.052  0.0000E+00  0.9600E+02
    -12.957  0.0000E+00  0.9600E+02
    -12.862  0.0000E+00  0.9600E+02
    -12.767  0.0000E+00  0.9600E+02
    -12.672  0.0000E+00  0.9600E+02
    -12.577  0.0000E+00  0.9600E+02
    -12.482  0.0000E+00  0.9600E+02
    -12.387  0.0000E+00  0.9600E+02
    -12.292  0.0000E+00  0.9600E+02
    -12.197  0.0000E+00  0.9600E+02
    -12.102  0.0000E+00  0.9600E+02
    -12.007  0.0000E+00  0.9600E+02
    -11.912  0.0000E+00  0.9600E+02
    -11.817  0.0000E+00  0.9600E+02
    -11.722  0.0000E+00  0.9600E+02
    -11.627  0.0000E+00  0.9600E+02
    -11.532  0.0000E+00  0.9600E+02
    -11.437  0.0000E+00  0.9600E+02
    -11.342  0.3776E+02  0.1063E+03
    -11.247  0.0000E+00  0.1120E+03
    -11.152  0.0000E+00  0.1120E+03
    -11.057  0.0000E+00  0.1120E+03
    -10.962  0.0000E+00  0.1120E+03
    -10.867  0.0000E+00  0.1120E+03
    -10.772  0.1829E+01  0.1127E+03
    -10.677  0.1002E+01  0.1151E+03
    -10.582  0.5278E+01  0.1209E+03
    -10.487  0.7214E+01  0.1267E+03
    -10.392  0.0000E+00  0.1291E+03
    -10.297  0.8478E+00  0.1360E+03
    -10.202  0.9849E+01  0.1409E+03
    -10.107  0.0000E+00  0.1442E+03
    -10.012  0.1216E+02  0.1534E+03
     -9.917  0.3118E+01  0.1594E+03
     -9.822  0.0000E+00  0.1600E+03
     -9.727  0.0000E+00  0.1600E+03
     -9.632  0.0000E+00  0.1600E+03
     -9.537  0.0000E+00  0.1600E+03
     -9.442  0.0000E+00  0.1600E+03
     -9.347  0.0000E+00  0.1600E+03
     -9.252  0.0000E+00  0.1600E+03
     -9.157  0.0000E+00  0.1600E+03
     -9.062  0.0000E+00  0.1600E+03
     -8.967  0.0000E+00  0.1600E+03
     -8.872  0.0000E+00  0.1600E+03
     -8.777  0.0000E+00  0.1600E+03
     -8.682  0.0000E+00  0.1600E+03
     -8.587  0.0000E+00  0.1600E+03
     -8.492  0.0000E+00  0.1600E+03
     -8.397  0.0000E+00  0.1600E+03
     -8.301  0.0000E+00  0.1600E+03
     -8.206  0.0000E+00  0.1600E+03
     -8.111  0.0000E+00  0.1600E+03
     -8.016  0.0000E+00  0.1600E+03
     -7.921  0.0000E+00  0.1600E+03
     -7.826  0.0000E+00  0.1600E+03
     -7.731  0.2648E+02  0.1723E+03
     -7.636  0.0000E+00  0.1920E+03
     -7.541  0.0000E+00  0.1920E+03
     -7.446  0.0000E+00  0.1920E+03
     -7.351  0.0000E+00  0.1920E+03
     -7.256  0.0000E+00  0.1920E+03
     -7.161  0.0000E+00  0.1920E+03
     -7.066  0.0000E+00  0.1920E+03
     -6.971  0.0000E+00  0.1921E+03
     -6.876  0.0000E+00  0.1925E+03
     -6.781  0.0000E+00  0.1934E+03
     -6.686  0.2828E+01  0.1937E+03
     -6.591  0.0000E+00  0.1944E+03
     -6.496  0.4430E-01  0.1960E+03
     -6.401  0.4677E+01  0.1979E+03
     -6.306  0.0000E+00  0.1991E+03
     -6.211  0.1559E+01  0.2009E+03
     -6.116  0.3118E+01  0.2031E+03
     -6.021  0.6237E+01  0.2044E+03
     -5.926  0.3987E-01  0.2058E+03
     -5.831  0.1044E+02  0.2107E+03
     -5.736  0.0000E+00  0.2226E+03
     -5.641  0.0000E+00  0.2235E+03
     -5.546  0.6930E-09  0.2236E+03
     -5.451  0.0000E+00  0.2239E+03
     -5.356  0.0000E+00  0.2240E+03
     -5.261  0.0000E+00  0.2240E+03
     -5.166  0.0000E+00  0.2240E+03
     -5.071  0.0000E+00  0.2240E+03
     -4.976  0.0000E+00  0.2240E+03
     -4.881  0.0000E+00  0.2240E+03
     -4.786  0.0000E+00  0.2240E+03
     -4.691  0.0000E+00  0.2240E+03
     -4.596  0.0000E+00  0.2240E+03
     -4.501  0.0000E+00  0.2240E+03
     -4.406  0.0000E+00  0.2240E+03
     -4.311  0.0000E+00  0.2240E+03
     -4.216  0.0000E+00  0.2240E+03
     -4.121  0.0000E+00  0.2240E+03
     -4.026  0.0000E+00  0.2240E+03
     -3.931  0.0000E+00  0.2240E+03
     -3.836  0.0000E+00  0.2240E+03
     -3.741  0.0000E+00  0.2240E+03
     -3.646  0.0000E+00  0.2240E+03
     -3.551  0.2422E+02  0.2399E+03
     -3.455  0.0000E+00  0.2560E+03
     -3.360  0.0000E+00  0.2560E+03
     -3.265  0.0000E+00  0.2560E+03
     -3.170  0.0000E+00  0.2560E+03
     -3.075  0.0000E+00  0.2560E+03
     -2.980  0.0000E+00  0.2560E+03
     -2.885  0.0000E+00  0.2560E+03
     -2.790  0.0000E+00  0.2560E+03
     -2.695  0.0000E+00  0.2560E+03
     -2.600  0.0000E+00  0.2560E+03
     -2.505  0.0000E+00  0.2560E+03
     -2.410  0.0000E+00  0.2560E+03
     -2.315  0.0000E+00  0.2560E+03
     -2.220  0.0000E+00  0.2560E+03
     -2.125  0.2596E-15  0.2560E+03
     -2.030  0.3118E+01  0.2584E+03
     -1.935  0.3118E+01  0.2615E+03
     -1.840  0.4737E-06  0.2635E+03
     -1.745  0.0000E+00  0.2659E+03
     -1.650  0.3118E+01  0.2684E+03
     -1.555  0.7796E+01  0.2724E+03
     -1.460  0.6189E+01  0.2756E+03
     -1.365  0.1559E+01  0.2787E+03
     -1.270  0.0000E+00  0.2796E+03
     -1.175  0.0000E+00  0.2800E+03
     -1.080  0.0000E+00  0.2800E+03
     -0.985  0.1338E-11  0.2807E+03
     -0.890  0.1246E+02  0.2847E+03
     -0.795  0.6984E+01  0.2913E+03
     -0.700  0.3843E+00  0.2961E+03
     -0.605  0.8562E+01  0.3021E+03
     -0.510  0.1045E+02  0.3057E+03
     -0.415  0.4884E+01  0.3085E+03
     -0.320  0.1559E+01  0.3138E+03
     -0.225  0.1559E+01  0.3199E+03
     -0.130  0.7251E+01  0.3271E+03
     -0.035  0.1466E-01  0.3327E+03
      0.060  0.4971E+01  0.3388E+03
      0.155  0.8232E+01  0.3475E+03
      0.250  0.4842E+01  0.3559E+03
      0.345  0.3485E+01  0.3620E+03
      0.440  0.1276E+02  0.3700E+03
      0.535  0.7754E+01  0.3804E+03
      0.630  0.7672E+01  0.3860E+03
      0.725  0.3593E+01  0.3914E+03
      0.820  0.6087E+01  0.3955E+03
      0.915  0.3105E+01  0.3975E+03
      1.010  0.2864E-06  0.3987E+03
      1.105  0.0000E+00  0.3993E+03
      1.200  0.4570E-03  0.3996E+03
      1.295  0.0000E+00  0.3999E+03
      1.391  0.0000E+00  0.3999E+03
      1.486  0.0000E+00  0.4000E+03
      1.581  0.0000E+00  0.4000E+03
      1.676  0.0000E+00  0.4000E+03
      1.771  0.0000E+00  0.4000E+03
      1.866  0.0000E+00  0.4000E+03
      1.961  0.0000E+00  0.4000E+03
      2.056  0.0000E+00  0.4000E+03
      2.151  0.0000E+00  0.4000E+03
      2.246  0.0000E+00  0.4000E+03
      2.341  0.0000E+00  0.4000E+03
      2.436  0.0000E+00  0.4000E+03
      2.531  0.0000E+00  0.4000E+03
      2.626  0.0000E+00  0.4000E+03
      2.721  0.0000E+00  0.4000E+03
      2.816  0.0000E+00  0.4000E+03
      2.911  0.0000E+00  0.4000E+03
      3.006  0.2098E+00  0.4002E+03
      3.101  0.0000E+00  0.4007E+03
      3.196  0.4917E-12  0.4013E+03
      3.291  0.0000E+00  0.4029E+03
      3.386  0.1215E+01  0.4037E+03
      3.481  0.0000E+00  0.4056E+03
      3.576  0.1371E-12  0.4066E+03
      3.671  0.0000E+00  0.4077E+03
      3.766  0.0000E+00  0.4083E+03
      3.861  0.0000E+00  0.4090E+03
      3.956  0.5529E-01  0.4096E+03
      4.051  0.0000E+00  0.4108E+03
      4.146  0.1557E+01  0.4130E+03
      4.241  0.0000E+00  0.4150E+03
      4.336  0.4760E-14  0.4166E+03
      4.431  0.6237E+01  0.4196E+03
      4.526  0.6409E-02  0.4225E+03
      4.621  0.3774E-05  0.4233E+03
      4.716  0.0000E+00  0.4239E+03
      4.811  0.0000E+00  0.4240E+03
      4.906  0.0000E+00  0.4240E+03
      5.001  0.0000E+00  0.4241E+03
      5.096  0.1559E+01  0.4242E+03
      5.191  0.0000E+00  0.4245E+03
      5.286  0.3118E+01  0.4260E+03
      5.381  0.1109E+01  0.4280E+03
      5.476  0.4677E+01  0.4305E+03
      5.571  0.9350E+01  0.4353E+03
      5.666  0.0000E+00  0.4379E+03
      5.761  0.2515E+01  0.4400E+03
      5.856  0.0000E+00  0.4421E+03
      5.951  0.4667E+01  0.4454E+03
      6.046  0.2543E-08  0.4486E+03
      6.141  0.3772E+01  0.4519E+03
      6.237  0.1008E+02  0.4580E+03
      6.332  0.3979E+01  0.4605E+03
      6.427  0.1559E+01  0.4636E+03
      6.522  0.7796E+01  0.4701E+03
      6.617  0.1731E-15  0.4744E+03
      6.712  0.4975E+01  0.4785E+03
      6.807  0.2272E+01  0.4815E+03
      6.902  0.4352E+01  0.4854E+03
      6.997  0.0000E+00  0.4897E+03
      7.092  0.7778E+01  0.4933E+03
      7.187  0.7796E+00  0.4978E+03
      7.282  0.3306E+01  0.5016E+03
      7.377  0.3118E+01  0.5053E+03
      7.472  0.0000E+00  0.5094E+03
      7.567  0.1559E+01  0.5114E+03
      7.662  0.0000E+00  0.5120E+03
      7.757  0.0000E+00  0.5120E+03
      7.852  0.0000E+00  0.5120E+03
      7.947  0.0000E+00  0.5120E+03
      8.042  0.0000E+00  0.5120E+03
      8.137  0.0000E+00  0.5120E+03
      8.232  0.0000E+00  0.5120E+03
      8.327  0.0000E+00  0.5120E+03
      8.422  0.0000E+00  0.5120E+03
      8.517  0.0000E+00  0.5120E+03
      8.612  0.0000E+00  0.5120E+03
      8.707  0.0000E+00  0.5120E+03
      8.802  0.0000E+00  0.5120E+03
      8.897  0.0000E+00  0.5120E+03
