       N       E                     dE             d eps       ncg     rms          rms(c)
DAV:   1     0.360373829670E+04    0.36037E+04   -0.18949E+05  7176   0.170E+03
DAV:   2     0.199447586080E+03   -0.34043E+04   -0.32102E+04  7992   0.355E+02
DAV:   3    -0.398834824797E+03   -0.59828E+03   -0.58926E+03  9488   0.172E+02
DAV:   4    -0.438760505814E+03   -0.39926E+02   -0.39753E+02  9648   0.488E+01
DAV:   5    -0.440238765876E+03   -0.14783E+01   -0.14761E+01  9768   0.908E+00    0.298E+01
DAV:   6    -0.419538947900E+03    0.20700E+02   -0.41921E+01  9432   0.103E+01    0.158E+01
DAV:   7    -0.417052619190E+03    0.24863E+01   -0.14591E+01 10232   0.636E+00    0.785E+00
DAV:   8    -0.416880372925E+03    0.17225E+00   -0.30088E+00  8640   0.315E+00    0.181E+00
DAV:   9    -0.416810615711E+03    0.69757E-01   -0.74010E-01  9408   0.173E+00    0.727E-01
DAV:  10    -0.416821867886E+03   -0.11252E-01   -0.10177E-01  9000   0.563E-01    0.439E-01
DAV:  11    -0.416822130739E+03   -0.26285E-03   -0.12590E-02  9840   0.262E-01    0.192E-01
DAV:  12    -0.416823532720E+03   -0.14020E-02   -0.88015E-03  9800   0.149E-01    0.105E-01
DAV:  13    -0.416823665099E+03   -0.13238E-03   -0.13258E-03  8464   0.749E-02    0.697E-02
DAV:  14    -0.416823706010E+03   -0.40911E-04   -0.27448E-04  8536   0.289E-02    0.287E-02
DAV:  15    -0.416823749501E+03   -0.43491E-04   -0.13183E-04  8096   0.190E-02    0.112E-02
DAV:  16    -0.416823753319E+03   -0.38182E-05   -0.13474E-05 10528   0.698E-03    0.113E-02
DAV:  17    -0.416823753316E+03    0.33215E-08   -0.44499E-06  8120   0.368E-03    0.461E-03
DAV:  18    -0.416823753365E+03   -0.48756E-07   -0.73253E-06 10400   0.420E-03    0.375E-03
DAV:  19    -0.416823753302E+03    0.62959E-07   -0.68752E-07  8256   0.194E-03    0.229E-03
DAV:  20    -0.416823753312E+03   -0.10223E-07   -0.45512E-07  9456   0.102E-03    0.461E-04
DAV:  21    -0.416823753346E+03   -0.33742E-07   -0.43911E-08  8752   0.413E-04    0.293E-04
DAV:  22    -0.416823753337E+03    0.88075E-08   -0.41218E-09  8176   0.171E-04    0.225E-04
DAV:  23    -0.416823753338E+03   -0.12296E-08    0.13005E-09  8728   0.809E-05    0.237E-04
DAV:  24    -0.416823753337E+03    0.14588E-08    0.15220E-09  7088   0.440E-05    0.215E-04
DAV:  25    -0.416823753335E+03    0.14297E-08    0.18662E-09  6552   0.452E-05    0.219E-04
DAV:  26    -0.416823753336E+03   -0.83674E-09    0.18153E-09  4648   0.267E-05    0.215E-04
DAV:  27    -0.416823753337E+03   -0.12587E-08    0.16537E-09  4784   0.281E-05    0.211E-04
DAV:  28    -0.416823753338E+03   -0.66575E-09    0.18280E-09  4216   0.191E-05    0.211E-04
DAV:  29    -0.416823753338E+03   -0.12733E-09    0.15743E-09  4208   0.944E-06    0.211E-04
DAV:  30    -0.416823753338E+03    0.31287E-09    0.14161E-09  4208   0.704E-06    0.211E-04
DAV:  31    -0.416823753338E+03    0.36380E-10    0.13986E-09  4208   0.560E-06    0.211E-04
DAV:  32    -0.416823753338E+03   -0.10914E-09    0.11860E-09  4208   0.579E-06    0.211E-04
DAV:  33    -0.416823753338E+03   -0.80036E-10    0.92645E-10  4208   0.309E-06
   1 F= -.41682375E+03 E0= -.41682375E+03  d E =0.000000E+00
