   8   8   1   0
  0.2263277E+02  0.5657300E-09  0.5657300E-09  0.5657300E-09  0.5000000E-15
  1.000000000000000E-004
  CAR 
 Name                                    
     11.11595100    -14.37376070  301     -0.09819456      1.00000000
    -14.374  0.0000E+00  0.0000E+00
    -14.289  0.0000E+00  0.0000E+00
    -14.204  0.0000E+00  0.0000E+00
    -14.119  0.0000E+00  0.0000E+00
    -14.034  0.0000E+00  0.0000E+00
    -13.949  0.0000E+00  0.0000E+00
    -13.864  0.0000E+00  0.0000E+00
    -13.779  0.2858E-15  0.2429E-16
    -13.694  0.2373E-11  0.2016E-12
    -13.609  0.4893E-08  0.4160E-09
    -13.524  0.2585E-05  0.2200E-06
    -13.439  0.3746E-03  0.3205E-04
    -13.354  0.1671E-01  0.1452E-02
    -13.269  0.2640E+00  0.2388E-01
    -13.184  0.1667E+01  0.1655E+00
    -13.099  0.5060E+01  0.5954E+00
    -13.014  0.1136E+02  0.1561E+01
    -12.929  0.2322E+02  0.3533E+01
    -12.844  0.3083E+02  0.6153E+01
    -12.759  0.1791E+02  0.7674E+01
    -12.674  0.3604E+01  0.7981E+01
    -12.589  0.2240E+00  0.8000E+01
    -12.505  0.4000E-02  0.8000E+01
    -12.420  0.1941E-04  0.8000E+01
    -12.335  0.2455E-07  0.8000E+01
    -12.250  0.7851E-11  0.8000E+01
    -12.165  0.0000E+00  0.8000E+01
    -12.080  0.0000E+00  0.8000E+01
    -11.995  0.0000E+00  0.8000E+01
    -11.910  0.0000E+00  0.8000E+01
    -11.825  0.0000E+00  0.8000E+01
    -11.740  0.0000E+00  0.8000E+01
    -11.655  0.0000E+00  0.8000E+01
    -11.570  0.0000E+00  0.8000E+01
    -11.485  0.0000E+00  0.8000E+01
    -11.400  0.0000E+00  0.8000E+01
    -11.315  0.0000E+00  0.8000E+01
    -11.230  0.0000E+00  0.8000E+01
    -11.145  0.0000E+00  0.8000E+01
    -11.060  0.0000E+00  0.8000E+01
    -10.975  0.0000E+00  0.8000E+01
    -10.890  0.0000E+00  0.8000E+01
    -10.805  0.0000E+00  0.8000E+01
    -10.720  0.0000E+00  0.8000E+01
    -10.635  0.0000E+00  0.8000E+01
    -10.550  0.0000E+00  0.8000E+01
    -10.465  0.0000E+00  0.8000E+01
    -10.380  0.0000E+00  0.8000E+01
    -10.295  0.0000E+00  0.8000E+01
    -10.210  0.0000E+00  0.8000E+01
    -10.125  0.0000E+00  0.8000E+01
    -10.041  0.0000E+00  0.8000E+01
     -9.956  0.0000E+00  0.8000E+01
     -9.871  0.0000E+00  0.8000E+01
     -9.786  0.0000E+00  0.8000E+01
     -9.701  0.0000E+00  0.8000E+01
     -9.616  0.0000E+00  0.8000E+01
     -9.531  0.0000E+00  0.8000E+01
     -9.446  0.0000E+00  0.8000E+01
     -9.361  0.0000E+00  0.8000E+01
     -9.276  0.0000E+00  0.8000E+01
     -9.191  0.0000E+00  0.8000E+01
     -9.106  0.0000E+00  0.8000E+01
     -9.021  0.0000E+00  0.8000E+01
     -8.936  0.0000E+00  0.8000E+01
     -8.851  0.0000E+00  0.8000E+01
     -8.766  0.0000E+00  0.8000E+01
     -8.681  0.0000E+00  0.8000E+01
     -8.596  0.0000E+00  0.8000E+01
     -8.511  0.0000E+00  0.8000E+01
     -8.426  0.0000E+00  0.8000E+01
     -8.341  0.0000E+00  0.8000E+01
     -8.256  0.0000E+00  0.8000E+01
     -8.171  0.0000E+00  0.8000E+01
     -8.086  0.0000E+00  0.8000E+01
     -8.001  0.0000E+00  0.8000E+01
     -7.916  0.0000E+00  0.8000E+01
     -7.831  0.0000E+00  0.8000E+01
     -7.746  0.0000E+00  0.8000E+01
     -7.661  0.0000E+00  0.8000E+01
     -7.577  0.0000E+00  0.8000E+01
     -7.492  0.0000E+00  0.8000E+01
     -7.407  0.0000E+00  0.8000E+01
     -7.322  0.0000E+00  0.8000E+01
     -7.237  0.0000E+00  0.8000E+01
     -7.152  0.0000E+00  0.8000E+01
     -7.067  0.0000E+00  0.8000E+01
     -6.982  0.0000E+00  0.8000E+01
     -6.897  0.0000E+00  0.8000E+01
     -6.812  0.0000E+00  0.8000E+01
     -6.727  0.0000E+00  0.8000E+01
     -6.642  0.0000E+00  0.8000E+01
     -6.557  0.0000E+00  0.8000E+01
     -6.472  0.0000E+00  0.8000E+01
     -6.387  0.0000E+00  0.8000E+01
     -6.302  0.0000E+00  0.8000E+01
     -6.217  0.0000E+00  0.8000E+01
     -6.132  0.0000E+00  0.8000E+01
     -6.047  0.0000E+00  0.8000E+01
     -5.962  0.0000E+00  0.8000E+01
     -5.877  0.0000E+00  0.8000E+01
     -5.792  0.0000E+00  0.8000E+01
     -5.707  0.0000E+00  0.8000E+01
     -5.622  0.0000E+00  0.8000E+01
     -5.537  0.0000E+00  0.8000E+01
     -5.452  0.0000E+00  0.8000E+01
     -5.367  0.0000E+00  0.8000E+01
     -5.282  0.0000E+00  0.8000E+01
     -5.197  0.0000E+00  0.8000E+01
     -5.112  0.0000E+00  0.8000E+01
     -5.028  0.0000E+00  0.8000E+01
     -4.943  0.0000E+00  0.8000E+01
     -4.858  0.0000E+00  0.8000E+01
     -4.773  0.0000E+00  0.8000E+01
     -4.688  0.0000E+00  0.8000E+01
     -4.603  0.0000E+00  0.8000E+01
     -4.518  0.0000E+00  0.8000E+01
     -4.433  0.0000E+00  0.8000E+01
     -4.348  0.0000E+00  0.8000E+01
     -4.263  0.0000E+00  0.8000E+01
     -4.178  0.0000E+00  0.8000E+01
     -4.093  0.0000E+00  0.8000E+01
     -4.008  0.0000E+00  0.8000E+01
     -3.923  0.0000E+00  0.8000E+01
     -3.838  0.0000E+00  0.8000E+01
     -3.753  0.0000E+00  0.8000E+01
     -3.668  0.0000E+00  0.8000E+01
     -3.583  0.0000E+00  0.8000E+01
     -3.498  0.0000E+00  0.8000E+01
     -3.413  0.0000E+00  0.8000E+01
     -3.328  0.0000E+00  0.8000E+01
     -3.243  0.0000E+00  0.8000E+01
     -3.158  0.0000E+00  0.8000E+01
     -3.073  0.0000E+00  0.8000E+01
     -2.988  0.2875E-12  0.8000E+01
     -2.903  0.1019E-08  0.8000E+01
     -2.818  0.8823E-06  0.8000E+01
     -2.733  0.1891E-03  0.8000E+01
     -2.648  0.1025E-01  0.8001E+01
     -2.564  0.1454E+00  0.8013E+01
     -2.479  0.5901E+00  0.8063E+01
     -2.394  0.1281E+01  0.8172E+01
     -2.309  0.4040E+01  0.8516E+01
     -2.224  0.8527E+01  0.9240E+01
     -2.139  0.1260E+02  0.1031E+02
     -2.054  0.1717E+02  0.1177E+02
     -1.969  0.1614E+02  0.1314E+02
     -1.884  0.9717E+01  0.1397E+02
     -1.799  0.7171E+01  0.1458E+02
     -1.714  0.8901E+01  0.1533E+02
     -1.629  0.9753E+01  0.1616E+02
     -1.544  0.5557E+01  0.1663E+02
     -1.459  0.2674E+01  0.1686E+02
     -1.374  0.9815E+01  0.1769E+02
     -1.289  0.1875E+02  0.1929E+02
     -1.204  0.1481E+02  0.2055E+02
     -1.119  0.1460E+02  0.2179E+02
     -1.034  0.2510E+02  0.2392E+02
     -0.949  0.2567E+02  0.2610E+02
     -0.864  0.2387E+02  0.2813E+02
     -0.779  0.2199E+02  0.3000E+02
     -0.694  0.1306E+02  0.3111E+02
     -0.609  0.7211E+01  0.3172E+02
     -0.524  0.2783E+01  0.3196E+02
     -0.439  0.4855E+00  0.3200E+02
     -0.354  0.3455E-01  0.3200E+02
     -0.269  0.8605E-03  0.3200E+02
     -0.184  0.6276E-05  0.3200E+02
     -0.100  0.1203E-07  0.3200E+02
     -0.015  0.5759E-11  0.3200E+02
      0.070  0.7350E-15  0.3200E+02
      0.155  0.0000E+00  0.3200E+02
      0.240  0.0000E+00  0.3200E+02
      0.325  0.0000E+00  0.3200E+02
      0.410  0.0000E+00  0.3200E+02
      0.495  0.0000E+00  0.3200E+02
      0.580  0.0000E+00  0.3200E+02
      0.665  0.0000E+00  0.3200E+02
      0.750  0.0000E+00  0.3200E+02
      0.835  0.0000E+00  0.3200E+02
      0.920  0.0000E+00  0.3200E+02
      1.005  0.0000E+00  0.3200E+02
      1.090  0.0000E+00  0.3200E+02
      1.175  0.0000E+00  0.3200E+02
      1.260  0.0000E+00  0.3200E+02
      1.345  0.0000E+00  0.3200E+02
      1.430  0.0000E+00  0.3200E+02
      1.515  0.0000E+00  0.3200E+02
      1.600  0.0000E+00  0.3200E+02
      1.685  0.0000E+00  0.3200E+02
      1.770  0.0000E+00  0.3200E+02
      1.855  0.0000E+00  0.3200E+02
      1.940  0.0000E+00  0.3200E+02
      2.025  0.0000E+00  0.3200E+02
      2.110  0.0000E+00  0.3200E+02
      2.195  0.0000E+00  0.3200E+02
      2.280  0.0000E+00  0.3200E+02
      2.364  0.0000E+00  0.3200E+02
      2.449  0.0000E+00  0.3200E+02
      2.534  0.0000E+00  0.3200E+02
      2.619  0.0000E+00  0.3200E+02
      2.704  0.0000E+00  0.3200E+02
      2.789  0.0000E+00  0.3200E+02
      2.874  0.0000E+00  0.3200E+02
      2.959  0.0000E+00  0.3200E+02
      3.044  0.0000E+00  0.3200E+02
      3.129  0.0000E+00  0.3200E+02
      3.214  0.0000E+00  0.3200E+02
      3.299  0.0000E+00  0.3200E+02
      3.384  0.0000E+00  0.3200E+02
      3.469  0.0000E+00  0.3200E+02
      3.554  0.0000E+00  0.3200E+02
      3.639  0.0000E+00  0.3200E+02
      3.724  0.0000E+00  0.3200E+02
      3.809  0.0000E+00  0.3200E+02
      3.894  0.2042E-16  0.3200E+02
      3.979  0.2401E-12  0.3200E+02
      4.064  0.7010E-09  0.3200E+02
      4.149  0.5005E-06  0.3200E+02
      4.234  0.8869E-04  0.3200E+02
      4.319  0.3989E-02  0.3200E+02
      4.404  0.4697E-01  0.3200E+02
      4.489  0.1498E+00  0.3202E+02
      4.574  0.1324E+00  0.3203E+02
      4.659  0.3235E-01  0.3203E+02
      4.744  0.2127E-02  0.3203E+02
      4.828  0.5434E-04  0.3203E+02
      4.913  0.2056E-02  0.3203E+02
      4.998  0.6029E-01  0.3204E+02
      5.083  0.4679E+00  0.3208E+02
      5.168  0.9927E+00  0.3216E+02
      5.253  0.5850E+00  0.3221E+02
      5.338  0.9473E-01  0.3222E+02
      5.423  0.8925E-02  0.3222E+02
      5.508  0.1345E+00  0.3223E+02
      5.593  0.9894E+00  0.3231E+02
      5.678  0.1992E+01  0.3248E+02
      5.763  0.1127E+01  0.3258E+02
      5.848  0.3858E+00  0.3261E+02
      5.933  0.9926E+00  0.3270E+02
      6.018  0.1248E+01  0.3280E+02
      6.103  0.4384E+00  0.3284E+02
      6.188  0.4228E-01  0.3284E+02
      6.273  0.2274E-01  0.3285E+02
      6.358  0.2663E+00  0.3287E+02
      6.443  0.8851E+00  0.3294E+02
      6.528  0.8506E+00  0.3302E+02
      6.613  0.6298E+00  0.3307E+02
      6.698  0.2469E+01  0.3328E+02
      6.783  0.7093E+01  0.3388E+02
      6.868  0.7342E+01  0.3451E+02
      6.953  0.3851E+01  0.3483E+02
      7.038  0.4840E+01  0.3524E+02
      7.123  0.4108E+01  0.3559E+02
      7.208  0.1045E+01  0.3568E+02
      7.292  0.2109E+00  0.3570E+02
      7.377  0.1177E+01  0.3580E+02
      7.462  0.4358E+01  0.3617E+02
      7.547  0.1008E+02  0.3703E+02
      7.632  0.1170E+02  0.3802E+02
      7.717  0.8149E+01  0.3871E+02
      7.802  0.4960E+01  0.3913E+02
      7.887  0.1551E+01  0.3927E+02
      7.972  0.1800E+00  0.3928E+02
      8.057  0.1959E+00  0.3930E+02
      8.142  0.1439E+01  0.3942E+02
      8.227  0.3002E+01  0.3968E+02
      8.312  0.2140E+01  0.3986E+02
      8.397  0.2817E+01  0.4010E+02
      8.482  0.4898E+01  0.4051E+02
      8.567  0.4519E+01  0.4090E+02
      8.652  0.3150E+01  0.4116E+02
      8.737  0.1484E+01  0.4129E+02
      8.822  0.8486E+00  0.4136E+02
      8.907  0.1818E+01  0.4152E+02
      8.992  0.1692E+01  0.4166E+02
      9.077  0.7884E+00  0.4173E+02
      9.162  0.4764E+00  0.4177E+02
      9.247  0.1426E+00  0.4178E+02
      9.332  0.2112E-01  0.4178E+02
      9.417  0.1568E+00  0.4180E+02
      9.502  0.7306E+00  0.4186E+02
      9.587  0.9409E+00  0.4194E+02
      9.672  0.3362E+00  0.4197E+02
      9.756  0.3346E-01  0.4197E+02
      9.841  0.1863E-01  0.4197E+02
      9.926  0.1031E+00  0.4198E+02
     10.011  0.1643E+00  0.4199E+02
     10.096  0.7268E-01  0.4200E+02
     10.181  0.8778E-02  0.4200E+02
     10.266  0.2801E-03  0.4200E+02
     10.351  0.2286E-05  0.4200E+02
     10.436  0.4654E-08  0.4200E+02
     10.521  0.2325E-11  0.4200E+02
     10.606  0.2858E-15  0.4200E+02
     10.691  0.0000E+00  0.4200E+02
     10.776  0.0000E+00  0.4200E+02
     10.861  0.0000E+00  0.4200E+02
     10.946  0.0000E+00  0.4200E+02
     11.031  0.0000E+00  0.4200E+02
     11.116  0.0000E+00  0.4200E+02
     11.11595100    -14.37376070  301     -0.09819456      1.00000000
    -14.374  0.0000E+00  0.0000E+00  0.0000E+00
    -14.289  0.0000E+00  0.0000E+00  0.0000E+00
    -14.204  0.0000E+00  0.0000E+00  0.0000E+00
    -14.119  0.0000E+00  0.0000E+00  0.0000E+00
    -14.034  0.0000E+00  0.0000E+00  0.0000E+00
    -13.949  0.0000E+00  0.0000E+00  0.0000E+00
    -13.864  0.0000E+00  0.0000E+00  0.0000E+00
    -13.779  0.3715E-18  0.7057E-28  0.0000E+00
    -13.694  0.3073E-14  0.2626E-17  0.0000E+00
    -13.609  0.6306E-11  0.1337E-13  0.0000E+00
    -13.524  0.3291E-08  0.1707E-10  0.0000E+00
    -13.439  0.4643E-06  0.5652E-08  0.0000E+00
    -13.354  0.1966E-04  0.5177E-06  0.0000E+00
    -13.269  0.2861E-03  0.1444E-04  0.0000E+00
    -13.184  0.1607E-02  0.1407E-03  0.0000E+00
    -13.099  0.3918E-02  0.6293E-03  0.0000E+00
    -13.014  0.5400E-02  0.1985E-02  0.0000E+00
    -12.929  0.5357E-02  0.4537E-02  0.0000E+00
    -12.844  0.3496E-02  0.5587E-02  0.0000E+00
    -12.759  0.1285E-02  0.2862E-02  0.0000E+00
    -12.674  0.2035E-03  0.5093E-03  0.0000E+00
    -12.589  0.1109E-04  0.2826E-04  0.0000E+00
    -12.505  0.1845E-06  0.4560E-06  0.0000E+00
    -12.420  0.8656E-09  0.2033E-08  0.0000E+00
    -12.335  0.1079E-11  0.2408E-11  0.0000E+00
    -12.250  0.3419E-15  0.7345E-15  0.0000E+00
    -12.165  0.0000E+00  0.0000E+00  0.0000E+00
    -12.080  0.0000E+00  0.0000E+00  0.0000E+00
    -11.995  0.0000E+00  0.0000E+00  0.0000E+00
    -11.910  0.0000E+00  0.0000E+00  0.0000E+00
    -11.825  0.0000E+00  0.0000E+00  0.0000E+00
    -11.740  0.0000E+00  0.0000E+00  0.0000E+00
    -11.655  0.0000E+00  0.0000E+00  0.0000E+00
    -11.570  0.0000E+00  0.0000E+00  0.0000E+00
    -11.485  0.0000E+00  0.0000E+00  0.0000E+00
    -11.400  0.0000E+00  0.0000E+00  0.0000E+00
    -11.315  0.0000E+00  0.0000E+00  0.0000E+00
    -11.230  0.0000E+00  0.0000E+00  0.0000E+00
    -11.145  0.0000E+00  0.0000E+00  0.0000E+00
    -11.060  0.0000E+00  0.0000E+00  0.0000E+00
    -10.975  0.0000E+00  0.0000E+00  0.0000E+00
    -10.890  0.0000E+00  0.0000E+00  0.0000E+00
    -10.805  0.0000E+00  0.0000E+00  0.0000E+00
    -10.720  0.0000E+00  0.0000E+00  0.0000E+00
    -10.635  0.0000E+00  0.0000E+00  0.0000E+00
    -10.550  0.0000E+00  0.0000E+00  0.0000E+00
    -10.465  0.0000E+00  0.0000E+00  0.0000E+00
    -10.380  0.0000E+00  0.0000E+00  0.0000E+00
    -10.295  0.0000E+00  0.0000E+00  0.0000E+00
    -10.210  0.0000E+00  0.0000E+00  0.0000E+00
    -10.125  0.0000E+00  0.0000E+00  0.0000E+00
    -10.041  0.0000E+00  0.0000E+00  0.0000E+00
     -9.956  0.0000E+00  0.0000E+00  0.0000E+00
     -9.871  0.0000E+00  0.0000E+00  0.0000E+00
     -9.786  0.0000E+00  0.0000E+00  0.0000E+00
     -9.701  0.0000E+00  0.0000E+00  0.0000E+00
     -9.616  0.0000E+00  0.0000E+00  0.0000E+00
     -9.531  0.0000E+00  0.0000E+00  0.0000E+00
     -9.446  0.0000E+00  0.0000E+00  0.0000E+00
     -9.361  0.0000E+00  0.0000E+00  0.0000E+00
     -9.276  0.0000E+00  0.0000E+00  0.0000E+00
     -9.191  0.0000E+00  0.0000E+00  0.0000E+00
     -9.106  0.0000E+00  0.0000E+00  0.0000E+00
     -9.021  0.0000E+00  0.0000E+00  0.0000E+00
     -8.936  0.0000E+00  0.0000E+00  0.0000E+00
     -8.851  0.0000E+00  0.0000E+00  0.0000E+00
     -8.766  0.0000E+00  0.0000E+00  0.0000E+00
     -8.681  0.0000E+00  0.0000E+00  0.0000E+00
     -8.596  0.0000E+00  0.0000E+00  0.0000E+00
     -8.511  0.0000E+00  0.0000E+00  0.0000E+00
     -8.426  0.0000E+00  0.0000E+00  0.0000E+00
     -8.341  0.0000E+00  0.0000E+00  0.0000E+00
     -8.256  0.0000E+00  0.0000E+00  0.0000E+00
     -8.171  0.0000E+00  0.0000E+00  0.0000E+00
     -8.086  0.0000E+00  0.0000E+00  0.0000E+00
     -8.001  0.0000E+00  0.0000E+00  0.0000E+00
     -7.916  0.0000E+00  0.0000E+00  0.0000E+00
     -7.831  0.0000E+00  0.0000E+00  0.0000E+00
     -7.746  0.0000E+00  0.0000E+00  0.0000E+00
     -7.661  0.0000E+00  0.0000E+00  0.0000E+00
     -7.577  0.0000E+00  0.0000E+00  0.0000E+00
     -7.492  0.0000E+00  0.0000E+00  0.0000E+00
     -7.407  0.0000E+00  0.0000E+00  0.0000E+00
     -7.322  0.0000E+00  0.0000E+00  0.0000E+00
     -7.237  0.0000E+00  0.0000E+00  0.0000E+00
     -7.152  0.0000E+00  0.0000E+00  0.0000E+00
     -7.067  0.0000E+00  0.0000E+00  0.0000E+00
     -6.982  0.0000E+00  0.0000E+00  0.0000E+00
     -6.897  0.0000E+00  0.0000E+00  0.0000E+00
     -6.812  0.0000E+00  0.0000E+00  0.0000E+00
     -6.727  0.0000E+00  0.0000E+00  0.0000E+00
     -6.642  0.0000E+00  0.0000E+00  0.0000E+00
     -6.557  0.0000E+00  0.0000E+00  0.0000E+00
     -6.472  0.0000E+00  0.0000E+00  0.0000E+00
     -6.387  0.0000E+00  0.0000E+00  0.0000E+00
     -6.302  0.0000E+00  0.0000E+00  0.0000E+00
     -6.217  0.0000E+00  0.0000E+00  0.0000E+00
     -6.132  0.0000E+00  0.0000E+00  0.0000E+00
     -6.047  0.0000E+00  0.0000E+00  0.0000E+00
     -5.962  0.0000E+00  0.0000E+00  0.0000E+00
     -5.877  0.0000E+00  0.0000E+00  0.0000E+00
     -5.792  0.0000E+00  0.0000E+00  0.0000E+00
     -5.707  0.0000E+00  0.0000E+00  0.0000E+00
     -5.622  0.0000E+00  0.0000E+00  0.0000E+00
     -5.537  0.0000E+00  0.0000E+00  0.0000E+00
     -5.452  0.0000E+00  0.0000E+00  0.0000E+00
     -5.367  0.0000E+00  0.0000E+00  0.0000E+00
     -5.282  0.0000E+00  0.0000E+00  0.0000E+00
     -5.197  0.0000E+00  0.0000E+00  0.0000E+00
     -5.112  0.0000E+00  0.0000E+00  0.0000E+00
     -5.028  0.0000E+00  0.0000E+00  0.0000E+00
     -4.943  0.0000E+00  0.0000E+00  0.0000E+00
     -4.858  0.0000E+00  0.0000E+00  0.0000E+00
     -4.773  0.0000E+00  0.0000E+00  0.0000E+00
     -4.688  0.0000E+00  0.0000E+00  0.0000E+00
     -4.603  0.0000E+00  0.0000E+00  0.0000E+00
     -4.518  0.0000E+00  0.0000E+00  0.0000E+00
     -4.433  0.0000E+00  0.0000E+00  0.0000E+00
     -4.348  0.0000E+00  0.0000E+00  0.0000E+00
     -4.263  0.0000E+00  0.0000E+00  0.0000E+00
     -4.178  0.0000E+00  0.0000E+00  0.0000E+00
     -4.093  0.0000E+00  0.0000E+00  0.0000E+00
     -4.008  0.0000E+00  0.0000E+00  0.0000E+00
     -3.923  0.0000E+00  0.0000E+00  0.0000E+00
     -3.838  0.0000E+00  0.0000E+00  0.0000E+00
     -3.753  0.0000E+00  0.0000E+00  0.0000E+00
     -3.668  0.0000E+00  0.0000E+00  0.0000E+00
     -3.583  0.0000E+00  0.0000E+00  0.0000E+00
     -3.498  0.0000E+00  0.0000E+00  0.0000E+00
     -3.413  0.0000E+00  0.0000E+00  0.0000E+00
     -3.328  0.0000E+00  0.0000E+00  0.0000E+00
     -3.243  0.0000E+00  0.0000E+00  0.0000E+00
     -3.158  0.0000E+00  0.0000E+00  0.0000E+00
     -3.073  0.0000E+00  0.0000E+00  0.0000E+00
     -2.988  0.2318E-14  0.7318E-25  0.0000E+00
     -2.903  0.8218E-11  0.2595E-21  0.0000E+00
     -2.818  0.7114E-08  0.1302E-15  0.0000E+00
     -2.733  0.1525E-05  0.5692E-12  0.0000E+00
     -2.648  0.8267E-04  0.6137E-09  0.0000E+00
     -2.564  0.1172E-02  0.1679E-06  0.0000E+00
     -2.479  0.4719E-02  0.1242E-04  0.0000E+00
     -2.394  0.9523E-02  0.2792E-03  0.0000E+00
     -2.309  0.2664E-01  0.2272E-02  0.0000E+00
     -2.224  0.4837E-01  0.8480E-02  0.0000E+00
     -2.139  0.5457E-01  0.1986E-01  0.0000E+00
     -2.054  0.6436E-01  0.2983E-01  0.0000E+00
     -1.969  0.6179E-01  0.2578E-01  0.0000E+00
     -1.884  0.3749E-01  0.1429E-01  0.0000E+00
     -1.799  0.2762E-01  0.8941E-02  0.0000E+00
     -1.714  0.2623E-01  0.1448E-01  0.0000E+00
     -1.629  0.2208E-01  0.1879E-01  0.0000E+00
     -1.544  0.1155E-01  0.1087E-01  0.0000E+00
     -1.459  0.3095E-02  0.5346E-02  0.0000E+00
     -1.374  0.7600E-02  0.1882E-01  0.0000E+00
     -1.289  0.1744E-01  0.3410E-01  0.0000E+00
     -1.204  0.1393E-01  0.2628E-01  0.0000E+00
     -1.119  0.7954E-02  0.2250E-01  0.0000E+00
     -1.034  0.8718E-02  0.3323E-01  0.0000E+00
     -0.949  0.7419E-02  0.2849E-01  0.0000E+00
     -0.864  0.3561E-02  0.1869E-01  0.0000E+00
     -0.779  0.8087E-03  0.1405E-01  0.0000E+00
     -0.694  0.1209E-03  0.8904E-02  0.0000E+00
     -0.609  0.1220E-04  0.5424E-02  0.0000E+00
     -0.524  0.4233E-06  0.2130E-02  0.0000E+00
     -0.439  0.3901E-08  0.4023E-03  0.0000E+00
     -0.354  0.9022E-11  0.3251E-04  0.0000E+00
     -0.269  0.5128E-14  0.8844E-06  0.0000E+00
     -0.184  0.6776E-18  0.6717E-08  0.0000E+00
     -0.100  0.5868E-25  0.1307E-10  0.0000E+00
     -0.015  0.2825E-28  0.6294E-14  0.0000E+00
      0.070  0.3616E-32  0.8056E-18  0.0000E+00
      0.155  0.0000E+00  0.0000E+00  0.0000E+00
      0.240  0.0000E+00  0.0000E+00  0.0000E+00
      0.325  0.0000E+00  0.0000E+00  0.0000E+00
      0.410  0.0000E+00  0.0000E+00  0.0000E+00
      0.495  0.0000E+00  0.0000E+00  0.0000E+00
      0.580  0.0000E+00  0.0000E+00  0.0000E+00
      0.665  0.0000E+00  0.0000E+00  0.0000E+00
      0.750  0.0000E+00  0.0000E+00  0.0000E+00
      0.835  0.0000E+00  0.0000E+00  0.0000E+00
      0.920  0.0000E+00  0.0000E+00  0.0000E+00
      1.005  0.0000E+00  0.0000E+00  0.0000E+00
      1.090  0.0000E+00  0.0000E+00  0.0000E+00
      1.175  0.0000E+00  0.0000E+00  0.0000E+00
      1.260  0.0000E+00  0.0000E+00  0.0000E+00
      1.345  0.0000E+00  0.0000E+00  0.0000E+00
      1.430  0.0000E+00  0.0000E+00  0.0000E+00
      1.515  0.0000E+00  0.0000E+00  0.0000E+00
      1.600  0.0000E+00  0.0000E+00  0.0000E+00
      1.685  0.0000E+00  0.0000E+00  0.0000E+00
      1.770  0.0000E+00  0.0000E+00  0.0000E+00
      1.855  0.0000E+00  0.0000E+00  0.0000E+00
      1.940  0.0000E+00  0.0000E+00  0.0000E+00
      2.025  0.0000E+00  0.0000E+00  0.0000E+00
      2.110  0.0000E+00  0.0000E+00  0.0000E+00
      2.195  0.0000E+00  0.0000E+00  0.0000E+00
      2.280  0.0000E+00  0.0000E+00  0.0000E+00
      2.364  0.0000E+00  0.0000E+00  0.0000E+00
      2.449  0.0000E+00  0.0000E+00  0.0000E+00
      2.534  0.0000E+00  0.0000E+00  0.0000E+00
      2.619  0.0000E+00  0.0000E+00  0.0000E+00
      2.704  0.0000E+00  0.0000E+00  0.0000E+00
      2.789  0.0000E+00  0.0000E+00  0.0000E+00
      2.874  0.0000E+00  0.0000E+00  0.0000E+00
      2.959  0.0000E+00  0.0000E+00  0.0000E+00
      3.044  0.0000E+00  0.0000E+00  0.0000E+00
      3.129  0.0000E+00  0.0000E+00  0.0000E+00
      3.214  0.0000E+00  0.0000E+00  0.0000E+00
      3.299  0.0000E+00  0.0000E+00  0.0000E+00
      3.384  0.0000E+00  0.0000E+00  0.0000E+00
      3.469  0.0000E+00  0.0000E+00  0.0000E+00
      3.554  0.0000E+00  0.0000E+00  0.0000E+00
      3.639  0.0000E+00  0.0000E+00  0.0000E+00
      3.724  0.0000E+00  0.0000E+00  0.0000E+00
      3.809  0.0000E+00  0.0000E+00  0.0000E+00
      3.894  0.8226E-18  0.4057E-31  0.0000E+00
      3.979  0.9674E-14  0.4772E-27  0.0000E+00
      4.064  0.2824E-10  0.1393E-23  0.0000E+00
      4.149  0.2016E-07  0.9946E-21  0.0000E+00
      4.234  0.3573E-05  0.1763E-18  0.0000E+00
      4.319  0.1607E-03  0.7928E-17  0.0000E+00
      4.404  0.1893E-02  0.9335E-16  0.0000E+00
      4.489  0.6036E-02  0.2977E-15  0.0000E+00
      4.574  0.5335E-02  0.2673E-15  0.0000E+00
      4.659  0.1303E-02  0.3214E-13  0.0000E+00
      4.744  0.8571E-04  0.5989E-10  0.0000E+00
      4.828  0.2128E-05  0.2746E-07  0.0000E+00
      4.913  0.7588E-04  0.3144E-05  0.0000E+00
      4.998  0.2225E-02  0.9219E-04  0.0000E+00
      5.083  0.1727E-01  0.7155E-03  0.0000E+00
      5.168  0.3663E-01  0.1518E-02  0.0000E+00
      5.253  0.2159E-01  0.8947E-03  0.0000E+00
      5.338  0.3496E-02  0.1450E-03  0.0000E+00
      5.423  0.3107E-03  0.2610E-04  0.0000E+00
      5.508  0.4445E-02  0.5513E-03  0.0000E+00
      5.593  0.3269E-01  0.4056E-02  0.0000E+00
      5.678  0.6584E-01  0.8168E-02  0.0000E+00
      5.763  0.3716E-01  0.4669E-02  0.0000E+00
      5.848  0.1144E-01  0.2424E-02  0.0000E+00
      5.933  0.2677E-01  0.7934E-02  0.0000E+00
      6.018  0.3361E-01  0.1001E-01  0.0000E+00
      6.103  0.1180E-01  0.3516E-02  0.0000E+00
      6.188  0.1144E-02  0.3360E-03  0.0000E+00
      6.273  0.8839E-03  0.3702E-04  0.0000E+00
      6.358  0.1050E-01  0.3514E-03  0.0000E+00
      6.443  0.3486E-01  0.1192E-02  0.0000E+00
      6.528  0.3212E-01  0.1900E-02  0.0000E+00
      6.613  0.1117E-01  0.8329E-02  0.0000E+00
      6.698  0.4277E-01  0.3353E-01  0.0000E+00
      6.783  0.1639E+00  0.7498E-01  0.0000E+00
      6.868  0.1925E+00  0.6858E-01  0.0000E+00
      6.953  0.1039E+00  0.4069E-01  0.0000E+00
      7.038  0.8607E-01  0.7417E-01  0.0000E+00
      7.123  0.6614E-01  0.6543E-01  0.0000E+00
      7.208  0.1789E-01  0.1626E-01  0.0000E+00
      7.292  0.1027E-01  0.1394E-02  0.0000E+00
      7.377  0.7187E-01  0.3298E-02  0.0000E+00
      7.462  0.2186E+00  0.2197E-01  0.0000E+00
      7.547  0.3856E+00  0.8039E-01  0.0000E+00
      7.632  0.3585E+00  0.1218E+00  0.0000E+00
      7.717  0.1384E+00  0.1152E+00  0.0000E+00
      7.802  0.2124E-01  0.7575E-01  0.0000E+00
      7.887  0.1158E-02  0.1888E-01  0.0000E+00
      7.972  0.1704E-03  0.1353E-02  0.0000E+00
      8.057  0.4343E-02  0.2135E-03  0.0000E+00
      8.142  0.3292E-01  0.1432E-02  0.0000E+00
      8.227  0.6828E-01  0.3355E-02  0.0000E+00
      8.312  0.3947E-01  0.1040E-01  0.0000E+00
      8.397  0.8092E-02  0.5123E-01  0.0000E+00
      8.482  0.1394E-01  0.8252E-01  0.0000E+00
      8.567  0.4737E-01  0.3879E-01  0.0000E+00
      8.652  0.7967E-01  0.8752E-02  0.0000E+00
      8.737  0.5979E-01  0.3871E-02  0.0000E+00
      8.822  0.4195E-01  0.5253E-02  0.0000E+00
      8.907  0.9192E-01  0.1449E-01  0.0000E+00
      8.992  0.8101E-01  0.1558E-01  0.0000E+00
      9.077  0.1992E-01  0.1509E-01  0.0000E+00
      9.162  0.1319E-02  0.1382E-01  0.0000E+00
      9.247  0.2920E-04  0.4296E-02  0.0000E+00
      9.332  0.4326E-03  0.3769E-03  0.0000E+00
      9.417  0.7526E-02  0.1880E-03  0.0000E+00
      9.502  0.3513E-01  0.8395E-03  0.0000E+00
      9.587  0.4525E-01  0.1081E-02  0.0000E+00
      9.672  0.1617E-01  0.3863E-03  0.0000E+00
      9.756  0.1605E-02  0.3750E-04  0.0000E+00
      9.841  0.8185E-03  0.9567E-06  0.0000E+00
      9.926  0.4511E-02  0.7326E-08  0.0000E+00
     10.011  0.7184E-02  0.1790E-08  0.0000E+00
     10.096  0.3178E-02  0.7873E-09  0.0000E+00
     10.181  0.3839E-03  0.9509E-10  0.0000E+00
     10.266  0.1225E-04  0.3034E-11  0.0000E+00
     10.351  0.9997E-07  0.2476E-13  0.0000E+00
     10.436  0.2035E-09  0.5042E-16  0.0000E+00
     10.521  0.1017E-12  0.2519E-19  0.0000E+00
     10.606  0.1250E-16  0.3096E-23  0.0000E+00
     10.691  0.0000E+00  0.0000E+00  0.0000E+00
     10.776  0.0000E+00  0.0000E+00  0.0000E+00
     10.861  0.0000E+00  0.0000E+00  0.0000E+00
     10.946  0.0000E+00  0.0000E+00  0.0000E+00
     11.031  0.0000E+00  0.0000E+00  0.0000E+00
     11.116  0.0000E+00  0.0000E+00  0.0000E+00
     11.11595100    -14.37376070  301     -0.09819456      1.00000000
    -14.374  0.0000E+00  0.0000E+00  0.0000E+00
    -14.289  0.0000E+00  0.0000E+00  0.0000E+00
    -14.204  0.0000E+00  0.0000E+00  0.0000E+00
    -14.119  0.0000E+00  0.0000E+00  0.0000E+00
    -14.034  0.0000E+00  0.0000E+00  0.0000E+00
    -13.949  0.0000E+00  0.0000E+00  0.0000E+00
    -13.864  0.0000E+00  0.0000E+00  0.0000E+00
    -13.779  0.3715E-18  0.1142E-28  0.0000E+00
    -13.694  0.3073E-14  0.2626E-17  0.0000E+00
    -13.609  0.6306E-11  0.1337E-13  0.0000E+00
    -13.524  0.3291E-08  0.1707E-10  0.0000E+00
    -13.439  0.4643E-06  0.5652E-08  0.0000E+00
    -13.354  0.1966E-04  0.5177E-06  0.0000E+00
    -13.269  0.2861E-03  0.1444E-04  0.0000E+00
    -13.184  0.1607E-02  0.1407E-03  0.0000E+00
    -13.099  0.3918E-02  0.6293E-03  0.0000E+00
    -13.014  0.5400E-02  0.1985E-02  0.0000E+00
    -12.929  0.5357E-02  0.4537E-02  0.0000E+00
    -12.844  0.3496E-02  0.5587E-02  0.0000E+00
    -12.759  0.1285E-02  0.2862E-02  0.0000E+00
    -12.674  0.2035E-03  0.5093E-03  0.0000E+00
    -12.589  0.1109E-04  0.2826E-04  0.0000E+00
    -12.505  0.1845E-06  0.4560E-06  0.0000E+00
    -12.420  0.8656E-09  0.2033E-08  0.0000E+00
    -12.335  0.1079E-11  0.2408E-11  0.0000E+00
    -12.250  0.3419E-15  0.7345E-15  0.0000E+00
    -12.165  0.0000E+00  0.0000E+00  0.0000E+00
    -12.080  0.0000E+00  0.0000E+00  0.0000E+00
    -11.995  0.0000E+00  0.0000E+00  0.0000E+00
    -11.910  0.0000E+00  0.0000E+00  0.0000E+00
    -11.825  0.0000E+00  0.0000E+00  0.0000E+00
    -11.740  0.0000E+00  0.0000E+00  0.0000E+00
    -11.655  0.0000E+00  0.0000E+00  0.0000E+00
    -11.570  0.0000E+00  0.0000E+00  0.0000E+00
    -11.485  0.0000E+00  0.0000E+00  0.0000E+00
    -11.400  0.0000E+00  0.0000E+00  0.0000E+00
    -11.315  0.0000E+00  0.0000E+00  0.0000E+00
    -11.230  0.0000E+00  0.0000E+00  0.0000E+00
    -11.145  0.0000E+00  0.0000E+00  0.0000E+00
    -11.060  0.0000E+00  0.0000E+00  0.0000E+00
    -10.975  0.0000E+00  0.0000E+00  0.0000E+00
    -10.890  0.0000E+00  0.0000E+00  0.0000E+00
    -10.805  0.0000E+00  0.0000E+00  0.0000E+00
    -10.720  0.0000E+00  0.0000E+00  0.0000E+00
    -10.635  0.0000E+00  0.0000E+00  0.0000E+00
    -10.550  0.0000E+00  0.0000E+00  0.0000E+00
    -10.465  0.0000E+00  0.0000E+00  0.0000E+00
    -10.380  0.0000E+00  0.0000E+00  0.0000E+00
    -10.295  0.0000E+00  0.0000E+00  0.0000E+00
    -10.210  0.0000E+00  0.0000E+00  0.0000E+00
    -10.125  0.0000E+00  0.0000E+00  0.0000E+00
    -10.041  0.0000E+00  0.0000E+00  0.0000E+00
     -9.956  0.0000E+00  0.0000E+00  0.0000E+00
     -9.871  0.0000E+00  0.0000E+00  0.0000E+00
     -9.786  0.0000E+00  0.0000E+00  0.0000E+00
     -9.701  0.0000E+00  0.0000E+00  0.0000E+00
     -9.616  0.0000E+00  0.0000E+00  0.0000E+00
     -9.531  0.0000E+00  0.0000E+00  0.0000E+00
     -9.446  0.0000E+00  0.0000E+00  0.0000E+00
     -9.361  0.0000E+00  0.0000E+00  0.0000E+00
     -9.276  0.0000E+00  0.0000E+00  0.0000E+00
     -9.191  0.0000E+00  0.0000E+00  0.0000E+00
     -9.106  0.0000E+00  0.0000E+00  0.0000E+00
     -9.021  0.0000E+00  0.0000E+00  0.0000E+00
     -8.936  0.0000E+00  0.0000E+00  0.0000E+00
     -8.851  0.0000E+00  0.0000E+00  0.0000E+00
     -8.766  0.0000E+00  0.0000E+00  0.0000E+00
     -8.681  0.0000E+00  0.0000E+00  0.0000E+00
     -8.596  0.0000E+00  0.0000E+00  0.0000E+00
     -8.511  0.0000E+00  0.0000E+00  0.0000E+00
     -8.426  0.0000E+00  0.0000E+00  0.0000E+00
     -8.341  0.0000E+00  0.0000E+00  0.0000E+00
     -8.256  0.0000E+00  0.0000E+00  0.0000E+00
     -8.171  0.0000E+00  0.0000E+00  0.0000E+00
     -8.086  0.0000E+00  0.0000E+00  0.0000E+00
     -8.001  0.0000E+00  0.0000E+00  0.0000E+00
     -7.916  0.0000E+00  0.0000E+00  0.0000E+00
     -7.831  0.0000E+00  0.0000E+00  0.0000E+00
     -7.746  0.0000E+00  0.0000E+00  0.0000E+00
     -7.661  0.0000E+00  0.0000E+00  0.0000E+00
     -7.577  0.0000E+00  0.0000E+00  0.0000E+00
     -7.492  0.0000E+00  0.0000E+00  0.0000E+00
     -7.407  0.0000E+00  0.0000E+00  0.0000E+00
     -7.322  0.0000E+00  0.0000E+00  0.0000E+00
     -7.237  0.0000E+00  0.0000E+00  0.0000E+00
     -7.152  0.0000E+00  0.0000E+00  0.0000E+00
     -7.067  0.0000E+00  0.0000E+00  0.0000E+00
     -6.982  0.0000E+00  0.0000E+00  0.0000E+00
     -6.897  0.0000E+00  0.0000E+00  0.0000E+00
     -6.812  0.0000E+00  0.0000E+00  0.0000E+00