    8    8    1    1
  0.2263277E+02  0.5657300E-09  0.5657300E-09  0.5657300E-09  0.5000000E-15
  1.000000000000000E-004
  CAR 
 Name                                    
     32     30     21
 
  0.0000000E+00  0.0000000E+00  0.0000000E+00  0.1562500E-01
    1      -13.215137
    2      -12.840266
    3      -12.840266
    4      -12.840266
    5       -2.237135
    6       -2.237135
    7       -2.237135
    8       -1.174800
    9       -1.174800
   10       -1.174800
   11       -1.174800
   12       -1.174800
   13       -1.174800
   14       -0.580424
   15       -0.580424
   16       -0.580424
   17        4.480432
   18        6.910388
   19        6.910388
   20        6.910388
   21        7.505992
 
  0.2500000E+00  0.0000000E+00  0.0000000E+00  0.9375000E-01
    1      -13.159923
    2      -12.894584
    3      -12.836508
    4      -12.836508
    5       -2.106737
    6       -2.106737
    7       -2.087674
    8       -1.362416
    9       -1.362416
   10       -1.247731
   11       -1.247731
   12       -1.096089
   13       -1.096089
   14       -0.962927
   15       -0.677028
   16       -0.677028
   17        5.133268
   18        7.038766
   19        7.423710
   20        7.423710
   21        7.771801
 
  0.5000000E+00  0.0000000E+00  0.0000000E+00  0.4687500E-01
    1      -13.026826
    2      -13.026826
    3      -12.832753
    4      -12.832753
    5       -1.762210
    6       -1.762210
    7       -1.762210
    8       -1.762210
    9       -1.628112
   10       -1.628112
   11       -1.318065
   12       -1.318065
   13       -0.895479
   14       -0.895479
   15       -0.895479
   16       -0.895479
   17        6.437290
   18        6.437290
   19        8.190514
   20        8.190523
   21        8.547828
 
  0.2500000E+00  0.2500000E+00  0.0000000E+00  0.1875000E+00
    1      -13.111246
    2      -12.882293
    3      -12.882293
    4      -12.841131
    5       -2.060660
    6       -2.060660
    7       -1.981482
    8       -1.681621
    9       -1.322861
   10       -1.272629
   11       -1.272629
   12       -1.103351
   13       -1.103351
   14       -1.069534
   15       -0.789718
   16       -0.645286
   17        5.639603
   18        7.536689
   19        7.536689
   20        7.625542
   21        8.190539
 
  0.5000000E+00  0.2500000E+00  0.0000000E+00  0.1875000E+00
    1      -12.995336
    2      -12.995336
    3      -12.857889
    4      -12.857889
    5       -1.951653
    6       -1.951653
    7       -1.806181
    8       -1.806181
    9       -1.651926
   10       -1.651926
   11       -1.066435
   12       -1.066435
   13       -1.042477
   14       -1.042477
   15       -0.825541
   16       -0.825541
   17        6.793725
   18        6.793725
   19        8.428423
   20        8.428979
   21        8.545803
 
  0.5000000E+00  0.5000000E+00  0.0000000E+00  0.4687500E-01
    1      -12.923405
    2      -12.923405
    3      -12.923405
    4      -12.923405
    5       -2.010195
    6       -2.010195
    7       -2.010195
    8       -2.010195
    9       -1.365141
   10       -1.365141
   11       -1.365141
   12       -1.365141
   13       -0.837096
   14       -0.837096
   15       -0.837096
   16       -0.837096
   17        7.573810
   18        7.573810
   19        7.573810
   20        7.573810
   21        9.085324
 
  0.2500000E+00  0.2500000E+00  0.2500000E+00  0.1250000E+00
    1      -13.069491
    2      -12.878215
    3      -12.878215
    4      -12.878215
    5       -2.133781
    6       -2.133781
    7       -2.133781
    8       -1.660279
    9       -1.337089
   10       -1.337089
   11       -1.337089
   12       -1.011245
   13       -1.011245
   14       -1.011245
   15       -0.711559
   16       -0.711559
   17        5.948714
   18        7.554282
   19        7.554282
   20        7.554282
   21        8.645681
 
  0.5000000E+00  0.2500000E+00  0.2500000E+00  0.1875000E+00
    1      -12.971509
    2      -12.971509
    3      -12.874135
    4      -12.874135
    5       -2.210519
    6       -2.210519
    7       -2.052995
    8       -2.052995
    9       -1.335340
   10       -1.335340
   11       -0.983138
   12       -0.983138
   13       -0.903232
   14       -0.903232
   15       -0.865363
   16       -0.865363
   17        6.776845
   18        6.776845
   19        7.715185
   20        7.715185
   21        8.899097
 
  0.5000000E+00  0.5000000E+00  0.2500000E+00  0.9375000E-01
    1      -12.919003
    2      -12.919003
    3      -12.919003
    4      -12.919003
    5       -2.292860
    6       -2.292860
    7       -2.292860
    8       -2.292860
    9       -1.050392
   10       -1.050392
   11       -1.050392
   12       -1.050392
   13       -0.835920
   14       -0.835920
   15       -0.835920
   16       -0.835920
   17        7.030482
   18        7.030482
   19        7.030482
   20        7.030482
   21        9.518401
 
  0.5000000E+00  0.5000000E+00  0.5000000E+00  0.1562500E-01
    1      -12.914606
    2      -12.914606
    3      -12.914606
    4      -12.914606
    5       -2.475089
    6       -2.475089
    7       -2.475089
    8       -2.475089
    9       -0.834733
   10       -0.834733
   11       -0.834733
   12       -0.834733
   13       -0.834733
   14       -0.834733
   15       -0.834733
   16       -0.834733
   17        6.667054
   18        6.667054
   19        6.667054
   20        6.667054
   21        9.957328
 
  0.0000000E+00  0.0000000E+00  0.0000000E+00  0.0000000E+00
    1      -13.215137
    2      -12.840266
    3      -12.840266
    4      -12.840266
    5       -2.237135
    6       -2.237135
    7       -2.237135
    8       -1.174800
    9       -1.174800
   10       -1.174800
   11       -1.174800
   12       -1.174800
   13       -1.174800
   14       -0.580424
   15       -0.580424
   16       -0.580424
   17        4.480432
   18        6.910388
   19        6.910388
   20        6.910388
   21        7.505992
 
  0.0000000E+00  0.1000000E+00  0.0000000E+00  0.0000000E+00
    1      -13.205932
    2      -12.849311
    3      -12.839549
    4      -12.839549
    5       -2.215770
    6       -2.215770
    7       -2.213590
    8       -1.207209
    9       -1.207209
   10       -1.188870
   11       -1.188870
   12       -1.161797
   13       -1.161797
   14       -0.651180
   15       -0.596881
   16       -0.596881
   17        4.595663
   18        6.944633
   19        6.998676
   20        6.998676
   21        7.550477
 
  0.0000000E+00  0.2000000E+00  0.0000000E+00  0.0000000E+00
    1      -13.179135
    2      -12.875650
    3      -12.837673
    4      -12.837673
    5       -2.152829
    6       -2.152829
    7       -2.142091
    8       -1.298829
    9       -1.298829
   10       -1.225449
   11       -1.225449
   12       -1.123736
   13       -1.123736
   14       -0.839914
   15       -0.643870
   16       -0.643870
   17        4.915288
   18        7.016781
   19        7.249703
   20        7.249703
   21        7.676446
 
  0.0000000E+00  0.3000000E+00  0.0000000E+00  0.0000000E+00
    1      -13.137431
    2      -12.916800
    3      -12.835349
    4      -12.835349
    5       -2.051727
    6       -2.051727
    7       -2.020526
    8       -1.434725
    9       -1.434725
   10       -1.269738
   11       -1.269738
   12       -1.096079
   13       -1.063324
   14       -1.063324
   15       -0.715282
   16       -0.715282
   17        5.378361
   18        7.027750
   19        7.618195
   20        7.618195
   21        7.887781
 
  0.0000000E+00  0.4000000E+00  0.0000000E+00  0.0000000E+00
    1      -13.084921
    2      -12.968877
    3      -12.833471
    4      -12.833471
    5       -1.918490
    6       -1.918490
    7       -1.848172
    8       -1.595546
    9       -1.595546
   10       -1.370424
   11       -1.304857
   12       -1.304857
   13       -0.985099
   14       -0.985099
   15       -0.802392
   16       -0.802392
   17        5.913051
   18        6.843173
   19        8.003151
   20        8.003151
   21        8.179935
 
  0.0000000E+00  0.5000000E+00  0.0000000E+00  0.0000000E+00
    1      -13.026826
    2      -13.026826
    3      -12.832753
    4      -12.832753
    5       -1.762210
    6       -1.762210
    7       -1.762210
    8       -1.762210
    9       -1.628112
   10       -1.628112
   11       -1.318065
   12       -1.318065
   13       -0.895479
   14       -0.895479
   15       -0.895479
   16       -0.895479
   17        6.437290
   18        6.437290
   19        8.190514
   20        8.190536
   21        8.547828
 
  0.0000000E+00  0.6000000E+00  0.0000000E+00  0.0000000E+00
    1      -13.084921
    2      -12.968877
    3      -12.833471
    4      -12.833471
    5       -1.918490
    6       -1.918490
    7       -1.848172
    8       -1.595546
    9       -1.595546
   10       -1.370424
   11       -1.304857
   12       -1.304857
   13       -0.985099
   14       -0.985099
   15       -0.802392
   16       -0.802392
   17        5.913051
   18        6.843173
   19        8.003151
   20        8.003151
   21        8.179934
 
  0.0000000E+00  0.7000000E+00  0.0000000E+00  0.0000000E+00
    1      -13.137431
    2      -12.916800
    3      -12.835349
    4      -12.835349
    5       -2.051727
    6       -2.051727
    7       -2.020526
    8       -1.434725
    9       -1.434725
   10       -1.269738
   11       -1.269738
   12       -1.096079
   13       -1.063324
   14       -1.063324
   15       -0.715282
   16       -0.715282
   17        5.378361
   18        7.027750
   19        7.618195
   20        7.618195
   21        7.887771
 
  0.0000000E+00  0.8000000E+00  0.0000000E+00  0.0000000E+00
    1      -13.179135
    2      -12.875650
    3      -12.837673
    4      -12.837673
    5       -2.152829
    6       -2.152829
    7       -2.142091
    8       -1.298829
    9       -1.298829
   10       -1.225449
   11       -1.225449
   12       -1.123736
   13       -1.123736
   14       -0.839914
   15       -0.643870
   16       -0.643870
   17        4.915288
   18        7.016781
   19        7.249703
   20        7.249703
   21        7.676549
 
  0.0000000E+00  0.9000000E+00  0.0000000E+00  0.0000000E+00
    1      -13.205932
    2      -12.849311
    3      -12.839549
    4      -12.839549
    5       -2.215770
    6       -2.215770
    7       -2.213590
    8       -1.207209
    9       -1.207209
   10       -1.188870
   11       -1.188870
   12       -1.161797
   13       -1.161797
   14       -0.651180
   15       -0.596881
   16       -0.596881
   17        4.595663
   18        6.944633
   19        6.998676
   20        6.998676
   21        7.549024
 
  0.0000000E+00  0.1000000E+01  0.0000000E+00  0.0000000E+00
    1      -13.215137
    2      -12.840266
    3      -12.840266
    4      -12.840266
    5       -2.237135
    6       -2.237135
    7       -2.237135
    8       -1.174800
    9       -1.174800
   10       -1.174800
   11       -1.174800
   12       -1.174800
   13       -1.174800
   14       -0.580424
   15       -0.580424
   16       -0.580424
   17        4.480432
   18        6.910388
   19        6.910388
   20        6.910388
   21        7.505992
 
  0.7142857E-01  0.9285714E+00  0.0000000E+00  0.0000000E+00
    1      -13.205752
    2      -12.844463
    3      -12.844463
    4      -12.839578
    5       -2.215324
    6       -2.214985
    7       -2.214985
    8       -1.230854
    9       -1.184726
   10       -1.184726
   11       -1.174911
   12       -1.174910
   13       -1.165576
   14       -0.663721
   15       -0.597450
   16       -0.585642
   17        4.597558
   18        6.973771
   19        6.973771
   20        6.997022
   21        7.569354
 
  0.1428571E+00  0.8571429E+00  0.0000000E+00  0.0000000E+00
    1      -13.178531
    2      -12.856207
    3      -12.856207
    4      -12.838387
    5       -2.157613
    6       -2.157613
    7       -2.150925
    8       -1.380736
    9       -1.212298
   10       -1.212298
   11       -1.167880
   12       -1.167880
   13       -1.138692
   14       -0.882897
   15       -0.648620
   16       -0.601375
   17        4.918499
   18        7.152219
   19        7.152219
   20        7.211537
   21        7.748145
 
  0.2142857E+00  0.7857143E+00  0.0000000E+00  0.0000000E+00
    1      -13.136468
    2      -12.873028
    3      -12.873028
    4      -12.839065
    5       -2.089548
    6       -2.089548
    7       -2.046881
    8       -1.579644
    9       -1.251363
   10       -1.251363
   11       -1.172296
   12       -1.134925
   13       -1.134924
   14       -1.095951
   15       -0.734190
   16       -0.627875
   17        5.377891
   18        7.406128
   19        7.406128
   20        7.480873
   21        8.025660
 
  0.2857143E+00  0.7142857E+00  0.0000000E+00  0.0000000E+00
    1      -13.084151
    2      -12.891526
    3      -12.891526
    4      -12.844967
    5       -2.038600
    6       -2.038600
    7       -1.908210
    8       -1.777575
    9       -1.468462
   10       -1.293679
   11       -1.293679
   12       -1.061715
   13       -1.061715
   14       -1.040338
   15       -0.853370
   16       -0.665454
   17        5.914278
   18        7.646916
   19        7.646916
   20        7.771919
   21        8.364944
 
  0.3571429E+00  0.6428571E+00  0.0000000E+00  0.0000000E+00
    1      -13.027312
    2      -12.908032
    3      -12.908032
    4      -12.859579
    5       -2.015309
    6       -2.015309
    7       -1.932658
    8       -1.742049
    9       -1.724904
   10       -1.330925
   11       -1.330925
   12       -1.002973
   13       -0.975706
   14       -0.960803
   15       -0.960803
   16       -0.713816
   17        6.483375
   18        7.724793
   19        7.724793
   20        8.012503
   21        8.710004
 
  0.4285714E+00  0.5714286E+00  0.0000000E+00  0.0000000E+00
    1      -12.971949
    2      -12.919373
    3      -12.919373
    4      -12.885464
    5       -2.015720
    6       -2.010182
    7       -2.010182
    8       -1.911257
    9       -1.557443
   10       -1.356216
   11       -1.356216
   12       -1.176665
   13       -0.906451
   14       -0.872262
   15       -0.872262
   16       -0.771793
   17        7.050880
   18        7.633947
   19        7.633947
   20        7.959129
   21        8.977068
 
  0.5000000E+00  0.5000000E+00  0.0000000E+00  0.0000000E+00
    1      -12.923405
    2      -12.923405
    3      -12.923405
    4      -12.923405
    5       -2.010195
    6       -2.010195
    7       -2.010195
    8       -2.010195
    9       -1.365141
   10       -1.365141
   11       -1.365141
   12       -1.365141
   13       -0.837096
   14       -0.837096
   15       -0.837096
   16       -0.837096
   17        7.573810
   18        7.573810
   19        7.573810
   20        7.573810
   21        9.085324
 
  0.5714286E+00  0.4285714E+00  0.0000000E+00  0.0000000E+00
    1      -12.971949
    2      -12.919373
    3      -12.919373
    4      -12.885464
    5       -2.015720
    6       -2.010182
    7       -2.010182
    8       -1.911257
    9       -1.557443
   10       -1.356216
   11       -1.356216
   12       -1.176665
   13       -0.906451
   14       -0.872262
   15       -0.872262
   16       -0.771793
   17        7.050880
   18        7.633947
   19        7.633947
   20        7.959129
   21        8.980175
 
  0.6428572E+00  0.3571428E+00  0.0000000E+00  0.0000000E+00
    1      -13.027312
    2      -12.908032
    3      -12.908032
    4      -12.859579
    5       -2.015309
    6       -2.015309
    7       -1.932658
    8       -1.742049
    9       -1.724904
   10       -1.330925
   11       -1.330925
   12       -1.002973
   13       -0.975706
   14       -0.960804
   15       -0.960804
   16       -0.713816
   17        6.483375
   18        7.724793
   19        7.724793
   20        8.012503
   21        8.710176
