       N       E                     dE             d eps       ncg     rms          rms(c)
DAV:   1     0.250518469084E+03    0.25052E+03   -0.11275E+04  1260   0.117E+03
DAV:   2     0.487585186404E+01   -0.24564E+03   -0.23569E+03  1879   0.236E+02
DAV:   3    -0.269417135162E+02   -0.31818E+02   -0.31678E+02  1520   0.956E+01
DAV:   4    -0.280212629616E+02   -0.10795E+01   -0.10784E+01  1516   0.211E+01
DAV:   5    -0.280687799090E+02   -0.47517E-01   -0.47510E-01  1622   0.439E+00    0.431E+00
DAV:   6    -0.272930953440E+02    0.77568E+00   -0.16994E+00  1515   0.589E+00    0.333E+00
DAV:   7    -0.272384424274E+02    0.54653E-01   -0.41179E-01  1815   0.286E+00    0.218E+00
DAV:   8    -0.272583051447E+02   -0.19863E-01   -0.34404E-02  1480   0.141E+00    0.390E-01
DAV:   9    -0.272581819162E+02    0.12323E-03   -0.80220E-04  1594   0.169E-01    0.211E-01
DAV:  10    -0.272590179853E+02   -0.83607E-03   -0.21400E-03  1485   0.264E-01    0.804E-02
DAV:  11    -0.272589723131E+02    0.45672E-04   -0.84363E-05  1653   0.477E-02    0.299E-02
DAV:  12    -0.272589672318E+02    0.50813E-05   -0.64805E-05  1505   0.376E-02    0.202E-02
DAV:  13    -0.272589682857E+02   -0.10539E-05   -0.10540E-05  1490   0.160E-02    0.978E-04
DAV:  14    -0.272589681693E+02    0.11642E-06   -0.10378E-07  1005   0.228E-03
   1 F= -.27258968E+02 E0= -.27258968E+02  d E =-.272590E+02
