PROCAR new format
# of k-points:   30         # of bands:  21         # of ions:   8

 k-point    1 :    0.00000000 0.00000000 0.00000000     weight = 0.01562500

band   1 # energy  -13.21513744 # occ.  2.00000000
 
ion      s      p      d    tot
  1  0.001  0.000  0.000  0.001
  2  0.001  0.000  0.000  0.001
  3  0.001  0.000  0.000  0.001
  4  0.001  0.000  0.000  0.001
  5  0.190  0.000  0.000  0.190
  6  0.190  0.000  0.000  0.190
  7  0.190  0.000  0.000  0.190
  8  0.190  0.000  0.000  0.190
tot  0.764  0.000  0.000  0.764
 
band   2 # energy  -12.84026560 # occ.  2.00000000
 
ion      s      p      d    tot
  1  0.000  0.000  0.000  0.000
  2  0.000  0.000  0.000  0.000
  3  0.000  0.000  0.000  0.000
  4  0.000  0.000  0.000  0.000
  5  0.143  0.000  0.000  0.143
  6  0.057  0.000  0.000  0.057
  7  0.548  0.000  0.000  0.548
  8  0.052  0.000  0.000  0.052
tot  0.801  0.000  0.000  0.801
 
band   3 # energy  -12.84026560 # occ.  2.00000000
 
ion      s      p      d    tot
  1  0.000  0.000  0.000  0.000
  2  0.000  0.000  0.000  0.000
  3  0.000  0.000  0.000  0.000
  4  0.000  0.000  0.000  0.000
  5  0.174  0.000  0.000  0.174
  6  0.200  0.000  0.000  0.200
  7  0.042  0.000  0.000  0.042
  8  0.384  0.000  0.000  0.384
tot  0.801  0.000  0.000  0.801
 
band   4 # energy  -12.84026560 # occ.  2.00000000
 
ion      s      p      d    tot
  1  0.000  0.000  0.000  0.000
  2  0.000  0.000  0.000  0.000
  3  0.000  0.000  0.000  0.000
  4  0.000  0.000  0.000  0.000
  5  0.283  0.000  0.000  0.283
  6  0.343  0.000  0.000  0.343
  7  0.009  0.000  0.000  0.009
  8  0.165  0.000  0.000  0.165
tot  0.801  0.000  0.000  0.801
 
band   5 # energy   -2.23713491 # occ.  2.00000000
 
ion      s      p      d    tot
  1  0.000  0.004  0.000  0.004
  2  0.000  0.004  0.000  0.004
  3  0.000  0.004  0.000  0.004
  4  0.000  0.004  0.000  0.004
  5  0.000  0.129  0.000  0.129
  6  0.000  0.129  0.000  0.129
  7  0.000  0.129  0.000  0.129
  8  0.000  0.129  0.000  0.129
tot  0.000  0.532  0.000  0.532
 
band   6 # energy   -2.23713491 # occ.  2.00000000
 
ion      s      p      d    tot
  1  0.000  0.004  0.000  0.004
  2  0.000  0.004  0.000  0.004
  3  0.000  0.004  0.000  0.004
  4  0.000  0.004  0.000  0.004
  5  0.000  0.129  0.000  0.129
  6  0.000  0.129  0.000  0.129
  7  0.000  0.129  0.000  0.129
  8  0.000  0.129  0.000  0.129
tot  0.000  0.532  0.000  0.532
 
band   7 # energy   -2.23713491 # occ.  2.00000000
 
ion      s      p      d    tot
  1  0.000  0.004  0.000  0.004
  2  0.000  0.004  0.000  0.004
  3  0.000  0.004  0.000  0.004
  4  0.000  0.004  0.000  0.004
  5  0.000  0.129  0.000  0.129
  6  0.000  0.129  0.000  0.129
  7  0.000  0.129  0.000  0.129
  8  0.000  0.129  0.000  0.129
tot  0.000  0.532  0.000  0.532
 
band   8 # energy   -1.17479986 # occ.  2.00000000
 
ion      s      p      d    tot
  1  0.000  0.002  0.000  0.002
  2  0.000  0.002  0.000  0.002
  3  0.000  0.003  0.000  0.003
  4  0.000  0.003  0.000  0.003
  5  0.000  0.120  0.000  0.120
  6  0.000  0.142  0.000  0.142
  7  0.000  0.176  0.000  0.176
  8  0.000  0.185  0.000  0.185
tot  0.000  0.633  0.000  0.633
 
band   9 # energy   -1.17479986 # occ.  2.00000000
 
ion      s      p      d    tot
  1  0.000  0.002  0.000  0.002
  2  0.000  0.002  0.000  0.002
  3  0.000  0.003  0.000  0.003
  4  0.000  0.002  0.000  0.002
  5  0.000  0.125  0.000  0.125
  6  0.000  0.144  0.000  0.144
  7  0.000  0.202  0.000  0.202
  8  0.000  0.154  0.000  0.154
tot  0.000  0.633  0.000  0.633
 
band  10 # energy   -1.17479986 # occ.  2.00000000
 
ion      s      p      d    tot
  1  0.000  0.001  0.000  0.001
  2  0.000  0.002  0.000  0.002
  3  0.000  0.004  0.000  0.004
  4  0.000  0.003  0.000  0.003
  5  0.000  0.071  0.000  0.071
  6  0.000  0.122  0.000  0.122
  7  0.000  0.255  0.000  0.255
  8  0.000  0.175  0.000  0.175
tot  0.000  0.633  0.000  0.633
 
band  11 # energy   -1.17479986 # occ.  2.00000000
 
ion      s      p      d    tot
  1  0.000  0.003  0.000  0.003
  2  0.000  0.003  0.000  0.003
  3  0.000  0.002  0.000  0.002
  4  0.000  0.002  0.000  0.002
  5  0.000  0.169  0.000  0.169
  6  0.000  0.220  0.000  0.220
  7  0.000  0.106  0.000  0.106
  8  0.000  0.129  0.000  0.129
tot  0.000  0.633  0.000  0.633
 
band  12 # energy   -1.17479986 # occ.  2.00000000
 
ion      s      p      d    tot
  1  0.000  0.004  0.000  0.004
  2  0.000  0.002  0.000  0.002
  3  0.000  0.002  0.000  0.002
  4  0.000  0.003  0.000  0.003
  5  0.000  0.224  0.000  0.224
  6  0.000  0.110  0.000  0.110
  7  0.000  0.109  0.000  0.109
  8  0.000  0.180  0.000  0.180
tot  0.000  0.633  0.000  0.633
 
band  13 # energy   -1.17479986 # occ.  2.00000000
 
ion      s      p      d    tot
  1  0.000  0.004  0.000  0.004
  2  0.000  0.003  0.000  0.003
  3  0.000  0.001  0.000  0.001
  4  0.000  0.002  0.000  0.002
  5  0.000  0.227  0.000  0.227
  6  0.000  0.197  0.000  0.197
  7  0.000  0.087  0.000  0.087
  8  0.000  0.113  0.000  0.113
tot  0.000  0.633  0.000  0.633
 
band  14 # energy   -0.58042375 # occ.  2.00000000
 
ion      s      p      d    tot
  1  0.000  0.001  0.000  0.001
  2  0.000  0.001  0.000  0.001
  3  0.000  0.001  0.000  0.001
  4  0.000  0.001  0.000  0.001
  5  0.000  0.171  0.000  0.171
  6  0.000  0.171  0.000  0.171
  7  0.000  0.171  0.000  0.171
  8  0.000  0.171  0.000  0.171
tot  0.000  0.689  0.000  0.689
 
band  15 # energy   -0.58042375 # occ.  2.00000000
 
ion      s      p      d    tot
  1  0.000  0.001  0.000  0.001
  2  0.000  0.001  0.000  0.001
  3  0.000  0.001  0.000  0.001
  4  0.000  0.001  0.000  0.001
  5  0.000  0.171  0.000  0.171
  6  0.000  0.171  0.000  0.171
  7  0.000  0.171  0.000  0.171
  8  0.000  0.171  0.000  0.171
tot  0.000  0.689  0.000  0.689
 
band  16 # energy   -0.58042375 # occ.  2.00000000
 
ion      s      p      d    tot
  1  0.000  0.001  0.000  0.001
  2  0.000  0.001  0.000  0.001
  3  0.000  0.001  0.000  0.001
  4  0.000  0.001  0.000  0.001
  5  0.000  0.171  0.000  0.171
  6  0.000  0.171  0.000  0.171
  7  0.000  0.171  0.000  0.171
  8  0.000  0.171  0.000  0.171
tot  0.000  0.689  0.000  0.689
 
band  17 # energy    4.48043175 # occ.  0.00000000
 
ion      s      p      d    tot
  1  0.040  0.000  0.000  0.040
  2  0.040  0.000  0.000  0.040
  3  0.040  0.000  0.000  0.040
  4  0.040  0.000  0.000  0.040
  5  0.035  0.000  0.000  0.035
  6  0.035  0.000  0.000  0.035
  7  0.035  0.000  0.000  0.035
  8  0.035  0.000  0.000  0.035
tot  0.302  0.000  0.000  0.302
 
band  18 # energy    6.91038769 # occ.  0.00000000
 
ion      s      p      d    tot
  1  0.124  0.000  0.000  0.124
  2  0.007  0.000  0.000  0.007
  3  0.126  0.000  0.000  0.126
  4  0.013  0.000  0.000  0.013
  5  0.011  0.000  0.000  0.011
  6  0.001  0.000  0.000  0.001
  7  0.011  0.000  0.000  0.011
  8  0.001  0.000  0.000  0.001
tot  0.293  0.000  0.000  0.293
 
band  19 # energy    6.91038769 # occ.  0.00000000
 
ion      s      p      d    tot
  1  0.019  0.000  0.000  0.019
  2  0.180  0.000  0.000  0.180
  3  0.027  0.000  0.000  0.027
  4  0.043  0.000  0.000  0.043
  5  0.002  0.000  0.000  0.002
  6  0.016  0.000  0.000  0.016
  7  0.002  0.000  0.000  0.002
  8  0.004  0.000  0.000  0.004
tot  0.293  0.000  0.000  0.293
 
band  20 # energy    6.91038770 # occ.  0.00000000
 
ion      s      p      d    tot
  1  0.060  0.000  0.000  0.060
  2  0.014  0.000  0.000  0.014
  3  0.049  0.000  0.000  0.049
  4  0.146  0.000  0.000  0.146
  5  0.005  0.000  0.000  0.005
  6  0.001  0.000  0.000  0.001
  7  0.004  0.000  0.000  0.004
  8  0.013  0.000  0.000  0.013
tot  0.293  0.000  0.000  0.293
 
band  21 # energy    7.50599176 # occ.  0.00000000
 
ion      s      p      d    tot
  1  0.000  0.000  0.000  0.000
  2  0.000  0.000  0.000  0.000
  3  0.000  0.000  0.000  0.000
  4  0.000  0.000  0.000  0.000
  5  0.000  0.000  0.000  0.000
  6  0.000  0.000  0.000  0.000
  7  0.000  0.000  0.000  0.000
  8  0.000  0.000  0.000  0.000
tot  0.000  0.000  0.000  0.000
 

 k-point    2 :    0.25000000 0.00000000 0.00000000     weight = 0.09375000

band   1 # energy  -13.15992330 # occ.  2.00000000
 
ion      s      p      d    tot
  1  0.001  0.000  0.000  0.001
  2  0.001  0.000  0.000  0.001
  3  0.001  0.000  0.000  0.001
  4  0.001  0.000  0.000  0.001
  5  0.191  0.000  0.000  0.191
  6  0.191  0.000  0.000  0.191
  7  0.191  0.000  0.000  0.191
  8  0.191  0.000  0.000  0.191
tot  0.768  0.000  0.000  0.769
 
band   2 # energy  -12.89458380 # occ.  2.00000000
 
ion      s      p      d    tot
  1  0.000  0.000  0.000  0.000
  2  0.000  0.000  0.000  0.000
  3  0.000  0.000  0.000  0.000
  4  0.000  0.000  0.000  0.000
  5  0.198  0.000  0.000  0.198
  6  0.198  0.000  0.000  0.198
  7  0.198  0.000  0.000  0.198
  8  0.198  0.000  0.000  0.198
tot  0.795  0.000  0.000  0.795
 
band   3 # energy  -12.83650815 # occ.  2.00000000
 
ion      s      p      d    tot
  1  0.000  0.000  0.000  0.000
  2  0.000  0.000  0.000  0.000
  3  0.000  0.000  0.000  0.000
  4  0.000  0.000  0.000  0.000
  5  0.181  0.000  0.000  0.181
  6  0.181  0.000  0.000  0.181
  7  0.219  0.000  0.000  0.219
  8  0.219  0.000  0.000  0.219
tot  0.801  0.000  0.000  0.801
 
band   4 # energy  -12.83650815 # occ.  2.00000000
 
ion      s      p      d    tot
  1  0.000  0.000  0.000  0.000
  2  0.000  0.000  0.000  0.000
  3  0.000  0.000  0.000  0.000
  4  0.000  0.000  0.000  0.000
  5  0.219  0.000  0.000  0.219
  6  0.219  0.000  0.000  0.219
  7  0.181  0.000  0.000  0.181
  8  0.181  0.000  0.000  0.181
tot  0.801  0.000  0.000  0.801
 
band   5 # energy   -2.10673735 # occ.  2.00000000
 
ion      s      p      d    tot
  1  0.000  0.004  0.000  0.004
  2  0.000  0.004  0.000  0.004
  3  0.000  0.004  0.000  0.004
  4  0.000  0.004  0.000  0.004
  5  0.000  0.132  0.000  0.132
  6  0.000  0.132  0.000  0.132
  7  0.000  0.132  0.000  0.132
  8  0.000  0.132  0.000  0.132
tot  0.000  0.541  0.000  0.541
 
band   6 # energy   -2.10673735 # occ.  2.00000000
 
ion      s      p      d    tot
  1  0.000  0.004  0.000  0.004
  2  0.000  0.004  0.000  0.004
  3  0.000  0.004  0.000  0.004
  4  0.000  0.004  0.000  0.004
  5  0.000  0.132  0.000  0.132
  6  0.000  0.132  0.000  0.132
  7  0.000  0.132  0.000  0.132
  8  0.000  0.132  0.000  0.132
tot  0.000  0.541  0.000  0.541
 
band   7 # energy   -2.08767353 # occ.  2.00000000
 
ion      s      p      d    tot
  1  0.002  0.003  0.000  0.004
  2  0.002  0.003  0.000  0.004
  3  0.002  0.003  0.000  0.004
  4  0.002  0.003  0.000  0.004
  5  0.001  0.131  0.000  0.132
  6  0.001  0.131  0.000  0.132
  7  0.001  0.131  0.000  0.132
  8  0.001  0.131  0.000  0.132
tot  0.010  0.533  0.000  0.544
 
band   8 # energy   -1.36241648 # occ.  2.00000000
 
ion      s      p      d    tot
  1  0.000  0.003  0.000  0.003
  2  0.000  0.003  0.000  0.003
  3  0.000  0.003  0.000  0.003
  4  0.000  0.003  0.000  0.003
  5  0.000  0.150  0.000  0.150
  6  0.000  0.150  0.000  0.150
  7  0.000  0.150  0.000  0.150
  8  0.000  0.150  0.000  0.150
tot  0.000  0.611  0.000  0.611
 
band   9 # energy   -1.36241648 # occ.  2.00000000
 
ion      s      p      d    tot
  1  0.000  0.003  0.000  0.003
  2  0.000  0.003  0.000  0.003
  3  0.000  0.003  0.000  0.003
  4  0.000  0.003  0.000  0.003
  5  0.000  0.150  0.000  0.150
  6  0.000  0.150  0.000  0.150
  7  0.000  0.150  0.000  0.150
  8  0.000  0.150  0.000  0.150
tot  0.000  0.611  0.000  0.611
 
band  10 # energy   -1.24773060 # occ.  2.00000000
 
ion      s      p      d    tot
  1  0.001  0.001  0.000  0.002
  2  0.001  0.001  0.000  0.002
  3  0.003  0.002  0.000  0.004
  4  0.003  0.002  0.000  0.004
  5  0.000  0.097  0.000  0.097
  6  0.000  0.097  0.000  0.097
  7  0.000  0.209  0.000  0.209
  8  0.000  0.209  0.000  0.209
tot  0.008  0.616  0.000  0.625
 
band  11 # energy   -1.24773060 # occ.  2.00000000
 
ion      s      p      d    tot
  1  0.003  0.002  0.000  0.004
  2  0.003  0.002  0.000  0.004
  3  0.001  0.001  0.000  0.002
  4  0.001  0.001  0.000  0.002
  5  0.000  0.209  0.000  0.209
  6  0.000  0.209  0.000  0.209
  7  0.000  0.097  0.000  0.097
  8  0.000  0.097  0.000  0.097
tot  0.008  0.616  0.000  0.625
 
band  12 # energy   -1.09608860 # occ.  2.00000000
 
ion      s      p      d    tot
  1  0.000  0.002  0.000  0.002
  2  0.000  0.002  0.000  0.002
  3  0.000  0.002  0.000  0.002
  4  0.000  0.002  0.000  0.002
  5  0.000  0.158  0.000  0.158
  6  0.000  0.158  0.000  0.158
  7  0.000  0.158  0.000  0.158
  8  0.000  0.158  0.000  0.158
tot  0.000  0.640  0.000  0.640
 
band  13 # energy   -1.09608860 # occ.  2.00000000
 
ion      s      p      d    tot
  1  0.000  0.002  0.000  0.002
  2  0.000  0.002  0.000  0.002
  3  0.000  0.002  0.000  0.002
  4  0.000  0.002  0.000  0.002
  5  0.000  0.158  0.000  0.158
  6  0.000  0.158  0.000  0.158
  7  0.000  0.158  0.000  0.158
  8  0.000  0.158  0.000  0.158
tot  0.000  0.640  0.000  0.640
 
band  14 # energy   -0.96292669 # occ.  2.00000000
 
ion      s      p      d    tot
  1  0.003  0.000  0.000  0.003
  2  0.003  0.000  0.000  0.003
  3  0.003  0.000  0.000  0.003
  4  0.003  0.000  0.000  0.003
  5  0.002  0.156  0.000  0.158
  6  0.002  0.156  0.000  0.158
  7  0.002  0.156  0.000  0.158
  8  0.002  0.156  0.000  0.158
tot  0.018  0.625  0.000  0.643
 
band  15 # energy   -0.67702794 # occ.  2.00000000
 
ion      s      p      d    tot
  1  0.000  0.001  0.000  0.001
  2  0.000  0.001  0.000  0.001
  3  0.000  0.001  0.000  0.001
  4  0.000  0.001  0.000  0.001
  5  0.000  0.168  0.000  0.168
  6  0.000  0.168  0.000  0.168
  7  0.000  0.168  0.000  0.168
  8  0.000  0.168  0.000  0.168
tot  0.000  0.679  0.000  0.679
 
band  16 # energy   -0.67702794 # occ.  2.00000000
 
ion      s      p      d    tot
  1  0.000  0.001  0.000  0.001
  2  0.000  0.001  0.000  0.001
  3  0.000  0.001  0.000  0.001
  4  0.000  0.001  0.000  0.001
  5  0.000  0.168  0.000  0.168
  6  0.000  0.168  0.000  0.168
  7  0.000  0.168  0.000  0.168
  8  0.000  0.168  0.000  0.168
tot  0.000  0.679  0.000  0.679
 
band  17 # energy    5.13326786 # occ.  0.00000000
 
ion      s      p      d    tot
  1  0.037  0.002  0.000  0.038
  2  0.037  0.002  0.000  0.038
  3  0.037  0.002  0.000  0.038
  4  0.037  0.002  0.000  0.038
  5  0.031  0.016  0.000  0.047
  6  0.031  0.016  0.000  0.047
  7  0.031  0.016  0.000  0.047
  8  0.031  0.016  0.000  0.047
tot  0.270  0.070  0.000  0.340
 
band  18 # energy    7.03876604 # occ.  0.00000000
 
ion      s      p      d    tot
  1  0.060  0.000  0.000  0.060
  2  0.060  0.000  0.000  0.060
  3  0.060  0.000  0.000  0.060
  4  0.060  0.000  0.000  0.060
  5  0.010  0.012  0.000  0.022
  6  0.010  0.012  0.000  0.022
  7  0.010  0.012  0.000  0.022
  8  0.010  0.012  0.000  0.022
tot  0.278  0.048  0.000  0.327
 
band  19 # energy    7.42371043 # occ.  0.00000000
 
ion      s      p      d    tot
  1  0.047  0.002  0.000  0.049
  2  0.047  0.002  0.000  0.049
  3  0.083  0.003  0.000  0.086
  4  0.083  0.003  0.000  0.086
  5  0.003  0.006  0.000  0.009
  6  0.003  0.006  0.000  0.009
  7  0.006  0.010  0.000  0.015
  8  0.006  0.010  0.000  0.015
tot  0.278  0.039  0.000  0.317
 
band  20 # energy    7.42371045 # occ.  0.00000000
 
ion      s      p      d    tot
  1  0.083  0.003  0.000  0.086
  2  0.083  0.003  0.000  0.086
  3  0.047  0.002  0.000  0.049
  4  0.047  0.002  0.000  0.049
  5  0.006  0.010  0.000  0.015
  6  0.006  0.010  0.000  0.015
  7  0.003  0.006  0.000  0.009
  8  0.003  0.006  0.000  0.009
tot  0.278  0.039  0.000  0.317
 
band  21 # energy    7.77180084 # occ.  0.00000000
 
ion      s      p      d    tot
  1  0.000  0.000  0.000  0.000
  2  0.000  0.000  0.000  0.000
  3  0.000  0.000  0.000  0.000
  4  0.000  0.000  0.000  0.000
  5  0.000  0.000  0.000  0.000
  6  0.000  0.000  0.000  0.000
  7  0.000  0.000  0.000  0.000
  8  0.000  0.000  0.000  0.000
tot  0.000  0.000  0.000  0.000
 

 k-point    3 :    0.50000000 0.00000000 0.00000000     weight = 0.04687500

band   1 # energy  -13.02682603 # occ.  2.00000000
 
ion      s      p      d    tot
  1  0.001  0.000  0.000  0.001
  2  0.001  0.000  0.000  0.001
  3  0.000  0.000  0.000  0.001
  4  0.000  0.000  0.000  0.001
  5  0.135  0.000  0.000  0.135
  6  0.135  0.000  0.000  0.135
  7  0.254  0.000  0.000  0.254
  8  0.254  0.000  0.000  0.254
tot  0.781  0.001  0.000  0.782
 
band   2 # energy  -13.02682603 # occ.  2.00000000
 
ion      s      p      d    tot
  1  0.000  0.000  0.000  0.001
  2  0.000  0.000  0.000  0.001
  3  0.001  0.000  0.000  0.001
  4  0.001  0.000  0.000  0.001
  5  0.254  0.000  0.000  0.254
  6  0.254  0.000  0.000  0.254
  7  0.135  0.000  0.000  0.135
  8  0.135  0.000  0.000  0.135
tot  0.781  0.001  0.000  0.782
 
band   3 # energy  -12.83275253 # occ.  2.00000000
 
ion      s      p      d    tot
  1  0.000  0.000  0.000  0.000
  2  0.000  0.000  0.000  0.000
  3  0.000  0.000  0.000  0.000
  4  0.000  0.000  0.000  0.000
  5  0.174  0.000  0.000  0.174
  6  0.174  0.000  0.000  0.174
  7  0.227  0.000  0.000  0.227
  8  0.227  0.000  0.000  0.227
tot  0.801  0.000  0.000  0.801
 
band   4 # energy  -12.83275253 # occ.  2.00000000
 
ion      s      p      d    tot
  1  0.000  0.000  0.000  0.000
  2  0.000  0.000  0.000  0.000
  3  0.000  0.000  0.000  0.000
  4  0.000  0.000  0.000  0.000
  5  0.227  0.000  0.000  0.227
  6  0.227  0.000  0.000  0.227
  7  0.174  0.000  0.000  0.174
  8  0.174  0.000  0.000  0.174
tot  0.801  0.000  0.000  0.801
 
band   5 # energy   -1.76220972 # occ.  2.00000000
 
ion      s      p      d    tot
  1  0.000  0.004  0.000  0.004
  2  0.000  0.004  0.000  0.004
  3  0.000  0.002  0.000  0.002
  4  0.000  0.002  0.000  0.002
  5  0.000  0.093  0.000  0.093
  6  0.000  0.093  0.000  0.093
  7  0.000  0.186  0.000  0.186
  8  0.000  0.186  0.000  0.186
tot  0.000  0.570  0.000  0.570
 
band   6 # energy   -1.76220972 # occ.  2.00000000
 
ion      s      p      d    tot
  1  0.000  0.001  0.000  0.001
  2  0.000  0.001  0.000  0.001
  3  0.000  0.005  0.000  0.005
  4  0.000  0.005  0.000  0.005
  5  0.000  0.225  0.000  0.225
  6  0.000  0.225  0.000  0.225
  7  0.000  0.053  0.000  0.053
  8  0.000  0.053  0.000  0.053
tot  0.000  0.570  0.000  0.570
 
band   7 # energy   -1.76220972 # occ.  2.00000000
 
ion      s      p      d    tot
  1  0.000  0.006  0.000  0.006
  2  0.000  0.006  0.000  0.006
  3  0.000  0.001  0.000  0.001
  4  0.000  0.001  0.000  0.001
  5  0.000  0.037  0.000  0.037
  6  0.000  0.037  0.000  0.037
  7  0.000  0.241  0.000  0.241
  8  0.000  0.241  0.000  0.241
tot  0.000  0.570  0.000  0.570
 
band   8 # energy   -1.76220972 # occ.  2.00000000
 
ion      s      p      d    tot
  1  0.000  0.002  0.000  0.002
  2  0.000  0.002  0.000  0.002
  3  0.000  0.005  0.000  0.005
  4  0.000  0.005  0.000  0.005
  5  0.000  0.202  0.000  0.202
  6  0.000  0.202  0.000  0.202
  7  0.000  0.077  0.000  0.077
  8  0.000  0.077  0.000  0.077
tot  0.000  0.570  0.000  0.570
 
band   9 # energy   -1.62811158 # occ.  2.00000000
 
ion      s      p      d    tot
  1  0.006  0.000  0.000  0.006
  2  0.006  0.000  0.000  0.006
  3  0.002  0.001  0.000  0.003
  4  0.002  0.001  0.000  0.003
  5  0.001  0.202  0.000  0.203
  6  0.001  0.202  0.000  0.203
  7  0.003  0.075  0.000  0.078
  8  0.003  0.075  0.000  0.078
tot  0.025  0.556  0.000  0.581
 
band  10 # energy   -1.62811158 # occ.  2.00000000
 
ion      s      p      d    tot
  1  0.002  0.001  0.000  0.003
  2  0.002  0.001  0.000  0.003
  3  0.006  0.000  0.000  0.006
  4  0.006  0.000  0.000  0.006
  5  0.003  0.075  0.000  0.078
  6  0.003  0.075  0.000  0.078
  7  0.001  0.202  0.000  0.203
  8  0.001  0.202  0.000  0.203
tot  0.025  0.556  0.000  0.581
 
band  11 # energy   -1.31806499 # occ.  2.00000000
 
ion      s      p      d    tot
  1  0.004  0.000  0.000  0.004
  2  0.004  0.000  0.000  0.004
  3  0.004  0.000  0.000  0.004
  4  0.004  0.000  0.000  0.004
  5  0.000  0.165  0.000  0.165
  6  0.000  0.165  0.000  0.165
  7  0.000  0.136  0.000  0.136
  8  0.000  0.136  0.000  0.136
tot  0.016  0.601  0.000  0.617
 
band  12 # energy   -1.31806499 # occ.  2.00000000
 
ion      s      p      d    tot
  1  0.004  0.000  0.000  0.004
  2  0.004  0.000  0.000  0.004
  3  0.004  0.000  0.000  0.004
  4  0.004  0.000  0.000  0.004
  5  0.000  0.136  0.000  0.136
  6  0.000  0.136  0.000  0.136
  7  0.000  0.165  0.000  0.165
  8  0.000  0.165  0.000  0.165
tot  0.016  0.601  0.000  0.617
 
band  13 # energy   -0.89547944 # occ.  2.00000000
 
ion      s      p      d    tot
  1  0.000  0.001  0.000  0.001
  2  0.000  0.001  0.000  0.001
  3  0.000  0.002  0.000  0.002
  4  0.000  0.002  0.000  0.002
  5  0.000  0.210  0.000  0.210
  6  0.000  0.210  0.000  0.210
  7  0.000  0.115  0.000  0.115
  8  0.000  0.115  0.000  0.115
tot  0.000  0.657  0.000  0.657
 
band  14 # energy   -0.89547944 # occ.  2.00000000
 
ion      s      p      d    tot
  1  0.000  0.001  0.000  0.001
  2  0.000  0.001  0.000  0.001
  3  0.000  0.003  0.000  0.003
  4  0.000  0.003  0.000  0.003
  5  0.000  0.254  0.000  0.254
  6  0.000  0.254  0.000  0.254
  7  0.000  0.071  0.000  0.071
  8  0.000  0.071  0.000  0.071
tot  0.000  0.657  0.000  0.657
 
band  15 # energy   -0.89547944 # occ.  2.00000000
 
ion      s      p      d    tot
  1  0.000  0.002  0.000  0.002
  2  0.000  0.002  0.000  0.002
  3  0.000  0.002  0.000  0.002
  4  0.000  0.002  0.000  0.002
  5  0.000  0.164  0.000  0.164
  6  0.000  0.164  0.000  0.164
  7  0.000  0.161  0.000  0.161
  8  0.000  0.161  0.000  0.161
tot  0.000  0.657  0.000  0.657
 
band  16 # energy   -0.89547944 # occ.  2.00000000
 
ion      s      p      d    tot
  1  0.000  0.003  0.000  0.003
  2  0.000  0.003  0.000  0.003
  3  0.000  0.000  0.000  0.000
  4  0.000  0.000  0.000  0.000
  5  0.000  0.022  0.000  0.022
  6  0.000  0.022  0.000  0.022
  7  0.000  0.303  0.000  0.303
  8  0.000  0.303  0.000  0.303
tot  0.000  0.657  0.000  0.657
 
band  17 # energy    6.43729013 # occ.  0.00000000
 
ion      s      p      d    tot
  1  0.041  0.001  0.000  0.042
  2  0.041  0.001  0.000  0.042
  3  0.038  0.001  0.000  0.039
  4  0.038  0.001  0.000  0.039
  5  0.021  0.033  0.000  0.054
  6  0.021  0.033  0.000  0.054
  7  0.023  0.030  0.000  0.053
  8  0.023  0.030  0.000  0.053
tot  0.245  0.131  0.000  0.376
 
band  18 # energy    6.43729013 # occ.  0.00000000
 
ion      s      p      d    tot
  1  0.038  0.001  0.000  0.039
  2  0.038  0.001  0.000  0.039
  3  0.041  0.001  0.000  0.042
  4  0.041  0.001  0.000  0.042
  5  0.023  0.030  0.000  0.053
  6  0.023  0.030  0.000  0.053
  7  0.021  0.033  0.000  0.054
  8  0.021  0.033  0.000  0.054
tot  0.245  0.131  0.000  0.376
 
band  19 # energy    8.19051438 # occ.  0.00000000
 
ion      s      p      d    tot
  1  0.069  0.000  0.000  0.069
  2  0.069  0.000  0.000  0.069
  3  0.068  0.000  0.000  0.068
  4  0.068  0.000  0.000  0.068
  5  0.000  0.022  0.000  0.022
  6  0.000  0.022  0.000  0.022
  7  0.000  0.022  0.000  0.022
  8  0.000  0.022  0.000  0.022
tot  0.275  0.087  0.000  0.362
 
band  20 # energy    8.19052256 # occ.  0.00000000
 
ion      s      p      d    tot
  1  0.068  0.000  0.000  0.068
  2  0.068  0.000  0.000  0.068
  3  0.069  0.000  0.000  0.069
  4  0.069  0.000  0.000  0.069
  5  0.000  0.022  0.000  0.022
  6  0.000  0.022  0.000  0.022
  7  0.000  0.022  0.000  0.022
  8  0.000  0.022  0.000  0.022
tot  0.275  0.087  0.000  0.362
 
band  21 # energy    8.54782756 # occ.  0.00000000
 
ion      s      p      d    tot
  1  0.000  0.000  0.000  0.000
  2  0.000  0.000  0.000  0.000
  3  0.000  0.000  0.000  0.000
  4  0.000  0.000  0.000  0.000
  5  0.000  0.000  0.000  0.000
  6  0.000  0.000  0.000  0.000
  7  0.000  0.000  0.000  0.000
  8  0.000  0.000  0.000  0.000
tot  0.000  0.000  0.000  0.000
 

 k-point    4 :    0.25000000 0.25000000 0.00000000     weight = 0.18750000

band   1 # energy  -13.11124581 # occ.  2.00000000
 
ion      s      p      d    tot
  1  0.001  0.000  0.000  0.001
  2  0.001  0.000  0.000  0.001
  3  0.001  0.000  0.000  0.001
  4  0.001  0.000  0.000  0.001
  5  0.192  0.000  0.000  0.192
  6  0.192  0.000  0.000  0.192
  7  0.192  0.000  0.000  0.192
  8  0.192  0.000  0.000  0.192
tot  0.773  0.001  0.000  0.773
 
band   2 # energy  -12.88229330 # occ.  2.00000000
 
ion      s      p      d    tot
  1  0.000  0.000  0.000  0.000
  2  0.000  0.000  0.000  0.000
  3  0.000  0.000  0.000  0.000
  4  0.000  0.000  0.000  0.000
  5  0.384  0.000  0.000  0.384
  6  0.014  0.000  0.000  0.014
  7  0.014  0.000  0.000  0.014
  8  0.384  0.000  0.000  0.384
tot  0.796  0.001  0.000  0.796
 
band   3 # energy  -12.88229330 # occ.  2.00000000
 
ion      s      p      d    tot
  1  0.000  0.000  0.000  0.000
  2  0.000  0.000  0.000  0.000
  3  0.000  0.000  0.000  0.000
  4  0.000  0.000  0.000  0.000
  5  0.014  0.000  0.000  0.014
  6  0.384  0.000  0.000  0.384
  7  0.384  0.000  0.000  0.384
  8  0.014  0.000  0.000  0.014
tot  0.796  0.001  0.000  0.796
 
band   4 # energy  -12.84113080 # occ.  2.00000000
 
ion      s      p      d    tot
  1  0.000  0.000  0.000  0.000
  2  0.000  0.000  0.000  0.000
  3  0.000  0.000  0.000  0.000
  4  0.000  0.000  0.000  0.000
  5  0.200  0.000  0.000  0.200
  6  0.200  0.000  0.000  0.200
  7  0.200  0.000  0.000  0.200
  8  0.200  0.000  0.000  0.200
tot  0.800  0.000  0.000  0.801
 
band   5 # energy   -2.06066023 # occ.  2.00000000
 
ion      s      p      d    tot
  1  0.000  0.002  0.000  0.002
  2  0.005  0.003  0.000  0.008
  3  0.005  0.003  0.000  0.008
  4  0.000  0.002  0.000  0.002
  5  0.000  0.201  0.000  0.201
  6  0.001  0.062  0.000  0.063
  7  0.001  0.062  0.000  0.063
  8  0.000  0.201  0.000  0.201
tot  0.013  0.534  0.000  0.547
 
band   6 # energy   -2.06066023 # occ.  2.00000000
 
ion      s      p      d    tot
  1  0.005  0.003  0.000  0.008
  2  0.000  0.002  0.000  0.002
  3  0.000  0.002  0.000  0.002
  4  0.005  0.003  0.000  0.008
  5  0.001  0.062  0.000  0.063
  6  0.000  0.201  0.000  0.201
  7  0.000  0.201  0.000  0.201
  8  0.001  0.062  0.000  0.063
tot  0.013  0.534  0.000  0.547
 
band   7 # energy   -1.98148156 # occ.  2.00000000
 
ion      s      p      d    tot
  1  0.000  0.004  0.000  0.004
  2  0.000  0.004  0.000  0.004
  3  0.000  0.004  0.000  0.004
  4  0.000  0.004  0.000  0.004
  5  0.000  0.134  0.000  0.134
  6  0.000  0.134  0.000  0.134
  7  0.000  0.134  0.000  0.134
  8  0.000  0.134  0.000  0.134
tot  0.000  0.551  0.000  0.551
 
band   8 # energy   -1.68162134 # occ.  2.00000000
 
ion      s      p      d    tot
  1  0.004  0.001  0.000  0.005
  2  0.004  0.001  0.000  0.005
  3  0.004  0.001  0.000  0.005
  4  0.004  0.001  0.000  0.005
  5  0.000  0.141  0.000  0.141
  6  0.000  0.141  0.000  0.141
  7  0.000  0.141  0.000  0.141
  8  0.000  0.141  0.000  0.141
tot  0.014  0.568  0.000  0.582
 
band   9 # energy   -1.32286145 # occ.  2.00000000
 
ion      s      p      d    tot
  1  0.004  0.000  0.000  0.005
  2  0.004  0.000  0.000  0.005
  3  0.004  0.000  0.000  0.005
  4  0.004  0.000  0.000  0.005
  5  0.002  0.146  0.000  0.148
  6  0.002  0.146  0.000  0.148
  7  0.002  0.146  0.000  0.148
  8  0.002  0.146  0.000  0.148
tot  0.027  0.584  0.000  0.611
 
band  10 # energy   -1.27262894 # occ.  2.00000000
 
ion      s      p      d    tot
  1  0.000  0.004  0.000  0.004
  2  0.000  0.001  0.000  0.001
  3  0.000  0.001  0.000  0.001
  4  0.000  0.004  0.000  0.004
  5  0.000  0.214  0.000  0.214
  6  0.000  0.090  0.000  0.090
  7  0.000  0.090  0.000  0.090
  8  0.000  0.214  0.000  0.214
tot  0.000  0.618  0.000  0.618
 
band  11 # energy   -1.27262894 # occ.  2.00000000
 
ion      s      p      d    tot
  1  0.000  0.001  0.000  0.001
  2  0.000  0.004  0.000  0.004
  3  0.000  0.004  0.000  0.004
  4  0.000  0.001  0.000  0.001
  5  0.000  0.090  0.000  0.090
  6  0.000  0.214  0.000  0.214
  7  0.000  0.214  0.000  0.214
  8  0.000  0.090  0.000  0.090
tot  0.000  0.618  0.000  0.618
 
band  12 # energy   -1.10335140 # occ.  2.00000000
 
ion      s      p      d    tot
  1  0.002  0.000  0.000  0.002
  2  0.000  0.002  0.000  0.002
  3  0.000  0.002  0.000  0.002
  4  0.002  0.000  0.000  0.002
  5  0.000  0.242  0.000  0.242
  6  0.000  0.072  0.000  0.072
  7  0.000  0.072  0.000  0.072
  8  0.000  0.242  0.000  0.242
tot  0.004  0.633  0.000  0.636
 
band  13 # energy   -1.10335140 # occ.  2.00000000
 
ion      s      p      d    tot
  1  0.000  0.002  0.000  0.002
  2  0.002  0.000  0.000  0.002
  3  0.002  0.000  0.000  0.002
  4  0.000  0.002  0.000  0.002
  5  0.000  0.072  0.000  0.072
  6  0.000  0.242  0.000  0.242
  7  0.000  0.242  0.000  0.242
  8  0.000  0.072  0.000  0.072
tot  0.004  0.633  0.000  0.636
 
band  14 # energy   -1.06953416 # occ.  2.00000000
 
ion      s      p      d    tot
  1  0.000  0.002  0.000  0.002
  2  0.000  0.002  0.000  0.002
  3  0.000  0.002  0.000  0.002
  4  0.000  0.002  0.000  0.002
  5  0.000  0.159  0.000  0.159
  6  0.000  0.159  0.000  0.159
  7  0.000  0.159  0.000  0.159
  8  0.000  0.159  0.000  0.159
tot  0.000  0.641  0.000  0.641
 
band  15 # energy   -0.78971771 # occ.  2.00000000
 
ion      s      p      d    tot
  1  0.000  0.001  0.000  0.001
  2  0.000  0.001  0.000  0.001
  3  0.000  0.001  0.000  0.001
  4  0.000  0.001  0.000  0.001
  5  0.000  0.165  0.000  0.165
  6  0.000  0.165  0.000  0.165
  7  0.000  0.165  0.000  0.165
  8  0.000  0.165  0.000  0.165
tot  0.000  0.666  0.000  0.666
 
band  16 # energy   -0.64528591 # occ.  2.00000000
 
ion      s      p      d    tot
  1  0.000  0.000  0.000  0.000
  2  0.000  0.000  0.000  0.000
  3  0.000  0.000  0.000  0.000
  4  0.000  0.000  0.000  0.000
  5  0.000  0.170  0.000  0.170
  6  0.000  0.170  0.000  0.170
  7  0.000  0.170  0.000  0.170
  8  0.000  0.170  0.000  0.170