   8   8   1   0
  0.2002677E+02  0.5435300E-09  0.5435300E-09  0.6646963E-09  0.5000000E-15
  1.000000000000000E-004
  CAR 
 Name                                    
     15.03339933    -67.67856199  301      4.79779412      1.00000000
    -67.679  0.0000E+00  0.0000E+00
    -67.403  0.0000E+00  0.0000E+00
    -67.127  0.0000E+00  0.0000E+00
    -66.851  0.0000E+00  0.0000E+00
    -66.576  0.0000E+00  0.0000E+00
    -66.300  0.0000E+00  0.0000E+00
    -66.024  0.0000E+00  0.0000E+00
    -65.749  0.0000E+00  0.0000E+00
    -65.473  0.0000E+00  0.0000E+00
    -65.197  0.0000E+00  0.0000E+00
    -64.921  0.0000E+00  0.0000E+00
    -64.646  0.0000E+00  0.0000E+00
    -64.370  0.0000E+00  0.0000E+00
    -64.094  0.0000E+00  0.0000E+00
    -63.819  0.3620E+02  0.1198E+02
    -63.543  0.0000E+00  0.1200E+02
    -63.267  0.0000E+00  0.1200E+02
    -62.992  0.0000E+00  0.1200E+02
    -62.716  0.0000E+00  0.1200E+02
    -62.440  0.0000E+00  0.1200E+02
    -62.164  0.0000E+00  0.1200E+02
    -61.889  0.0000E+00  0.1200E+02
    -61.613  0.0000E+00  0.1200E+02
    -61.337  0.0000E+00  0.1200E+02
    -61.062  0.0000E+00  0.1200E+02
    -60.786  0.0000E+00  0.1200E+02
    -60.510  0.0000E+00  0.1200E+02
    -60.234  0.0000E+00  0.1200E+02
    -59.959  0.0000E+00  0.1200E+02
    -59.683  0.0000E+00  0.1200E+02
    -59.407  0.0000E+00  0.1200E+02
    -59.132  0.0000E+00  0.1200E+02
    -58.856  0.0000E+00  0.1200E+02
    -58.580  0.0000E+00  0.1200E+02
    -58.305  0.0000E+00  0.1200E+02
    -58.029  0.0000E+00  0.1200E+02
    -57.753  0.0000E+00  0.1200E+02
    -57.477  0.0000E+00  0.1200E+02
    -57.202  0.0000E+00  0.1200E+02
    -56.926  0.0000E+00  0.1200E+02
    -56.650  0.0000E+00  0.1200E+02
    -56.375  0.0000E+00  0.1200E+02
    -56.099  0.0000E+00  0.1200E+02
    -55.823  0.0000E+00  0.1200E+02
    -55.547  0.0000E+00  0.1200E+02
    -55.272  0.0000E+00  0.1200E+02
    -54.996  0.0000E+00  0.1200E+02
    -54.720  0.0000E+00  0.1200E+02
    -54.445  0.0000E+00  0.1200E+02
    -54.169  0.0000E+00  0.1200E+02
    -53.893  0.0000E+00  0.1200E+02
    -53.618  0.0000E+00  0.1200E+02
    -53.342  0.0000E+00  0.1200E+02
    -53.066  0.0000E+00  0.1200E+02
    -52.790  0.0000E+00  0.1200E+02
    -52.515  0.0000E+00  0.1200E+02
    -52.239  0.0000E+00  0.1200E+02
    -51.963  0.0000E+00  0.1200E+02
    -51.688  0.0000E+00  0.1200E+02
    -51.412  0.0000E+00  0.1200E+02
    -51.136  0.0000E+00  0.1200E+02
    -50.860  0.0000E+00  0.1200E+02
    -50.585  0.0000E+00  0.1200E+02
    -50.309  0.0000E+00  0.1200E+02
    -50.033  0.0000E+00  0.1200E+02
    -49.758  0.0000E+00  0.1200E+02
    -49.482  0.0000E+00  0.1200E+02
    -49.206  0.0000E+00  0.1200E+02
    -48.931  0.0000E+00  0.1200E+02
    -48.655  0.0000E+00  0.1200E+02
    -48.379  0.0000E+00  0.1200E+02
    -48.103  0.0000E+00  0.1200E+02
    -47.828  0.0000E+00  0.1200E+02
    -47.552  0.0000E+00  0.1200E+02
    -47.276  0.0000E+00  0.1200E+02
    -47.001  0.0000E+00  0.1200E+02
    -46.725  0.0000E+00  0.1200E+02
    -46.449  0.0000E+00  0.1200E+02
    -46.173  0.0000E+00  0.1200E+02
    -45.898  0.0000E+00  0.1200E+02
    -45.622  0.0000E+00  0.1200E+02
    -45.346  0.0000E+00  0.1200E+02
    -45.071  0.0000E+00  0.1200E+02
    -44.795  0.0000E+00  0.1200E+02
    -44.519  0.0000E+00  0.1200E+02
    -44.244  0.0000E+00  0.1200E+02
    -43.968  0.0000E+00  0.1200E+02
    -43.692  0.0000E+00  0.1200E+02
    -43.416  0.0000E+00  0.1200E+02
    -43.141  0.0000E+00  0.1200E+02
    -42.865  0.0000E+00  0.1200E+02
    -42.589  0.0000E+00  0.1200E+02
    -42.314  0.0000E+00  0.1200E+02
    -42.038  0.0000E+00  0.1200E+02
    -41.762  0.0000E+00  0.1200E+02
    -41.486  0.0000E+00  0.1200E+02
    -41.211  0.0000E+00  0.1200E+02
    -40.935  0.0000E+00  0.1200E+02
    -40.659  0.0000E+00  0.1200E+02
    -40.384  0.0000E+00  0.1200E+02
    -40.108  0.0000E+00  0.1200E+02
    -39.832  0.0000E+00  0.1200E+02
    -39.556  0.0000E+00  0.1200E+02
    -39.281  0.0000E+00  0.1200E+02
    -39.005  0.0000E+00  0.1200E+02
    -38.729  0.0000E+00  0.1200E+02
    -38.454  0.0000E+00  0.1200E+02
    -38.178  0.0000E+00  0.1200E+02
    -37.902  0.0000E+00  0.1200E+02
    -37.627  0.0000E+00  0.1200E+02
    -37.351  0.0000E+00  0.1200E+02
    -37.075  0.0000E+00  0.1200E+02
    -36.799  0.0000E+00  0.1200E+02
    -36.524  0.0000E+00  0.1200E+02
    -36.248  0.0000E+00  0.1200E+02
    -35.972  0.0000E+00  0.1200E+02
    -35.697  0.0000E+00  0.1200E+02
    -35.421  0.0000E+00  0.1200E+02
    -35.145  0.0000E+00  0.1200E+02
    -34.869  0.0000E+00  0.1200E+02
    -34.594  0.0000E+00  0.1200E+02
    -34.318  0.0000E+00  0.1200E+02
    -34.042  0.0000E+00  0.1200E+02
    -33.767  0.0000E+00  0.1200E+02
    -33.491  0.0000E+00  0.1200E+02
    -33.215  0.0000E+00  0.1200E+02
    -32.940  0.0000E+00  0.1200E+02
    -32.664  0.0000E+00  0.1200E+02
    -32.388  0.0000E+00  0.1200E+02
    -32.112  0.0000E+00  0.1200E+02
    -31.837  0.0000E+00  0.1200E+02
    -31.561  0.0000E+00  0.1200E+02
    -31.285  0.0000E+00  0.1200E+02
    -31.010  0.0000E+00  0.1200E+02
    -30.734  0.0000E+00  0.1200E+02
    -30.458  0.0000E+00  0.1200E+02
    -30.182  0.0000E+00  0.1200E+02
    -29.907  0.0000E+00  0.1200E+02
    -29.631  0.0000E+00  0.1200E+02
    -29.355  0.0000E+00  0.1200E+02
    -29.080  0.0000E+00  0.1200E+02
    -28.804  0.0000E+00  0.1200E+02
    -28.528  0.0000E+00  0.1200E+02
    -28.253  0.0000E+00  0.1200E+02
    -27.977  0.0000E+00  0.1200E+02
    -27.701  0.0000E+00  0.1200E+02
    -27.425  0.0000E+00  0.1200E+02
    -27.150  0.0000E+00  0.1200E+02
    -26.874  0.0000E+00  0.1200E+02
    -26.598  0.0000E+00  0.1200E+02
    -26.323  0.0000E+00  0.1200E+02
    -26.047  0.0000E+00  0.1200E+02
    -25.771  0.0000E+00  0.1200E+02
    -25.495  0.0000E+00  0.1200E+02
    -25.220  0.0000E+00  0.1200E+02
    -24.944  0.0000E+00  0.1200E+02
    -24.668  0.0000E+00  0.1200E+02
    -24.393  0.0000E+00  0.1200E+02
    -24.117  0.0000E+00  0.1200E+02
    -23.841  0.0000E+00  0.1200E+02
    -23.566  0.0000E+00  0.1200E+02
    -23.290  0.0000E+00  0.1200E+02
    -23.014  0.0000E+00  0.1200E+02
    -22.738  0.0000E+00  0.1200E+02
    -22.463  0.0000E+00  0.1200E+02
    -22.187  0.0000E+00  0.1200E+02
    -21.911  0.0000E+00  0.1200E+02
    -21.636  0.0000E+00  0.1200E+02
    -21.360  0.0000E+00  0.1200E+02
    -21.084  0.0000E+00  0.1200E+02
    -20.808  0.0000E+00  0.1200E+02
    -20.533  0.0000E+00  0.1200E+02
    -20.257  0.0000E+00  0.1200E+02
    -19.981  0.0000E+00  0.1200E+02
    -19.706  0.0000E+00  0.1200E+02
    -19.430  0.0000E+00  0.1200E+02
    -19.154  0.0000E+00  0.1200E+02
    -18.879  0.0000E+00  0.1200E+02
    -18.603  0.0000E+00  0.1200E+02
    -18.327  0.0000E+00  0.1200E+02
    -18.051  0.0000E+00  0.1200E+02
    -17.776  0.0000E+00  0.1200E+02
    -17.500  0.0000E+00  0.1200E+02
    -17.224  0.0000E+00  0.2200E+02
    -16.949  0.0000E+00  0.2200E+02
    -16.673  0.0000E+00  0.2200E+02
    -16.397  0.0000E+00  0.2200E+02
    -16.121  0.0000E+00  0.2200E+02
    -15.846  0.0000E+00  0.2200E+02
    -15.570  0.0000E+00  0.2200E+02
    -15.294  0.0000E+00  0.2200E+02
    -15.019  0.0000E+00  0.2200E+02
    -14.743  0.0000E+00  0.2200E+02
    -14.467  0.0000E+00  0.2200E+02
    -14.191  0.0000E+00  0.2200E+02
    -13.916  0.0000E+00  0.2200E+02
    -13.640  0.0000E+00  0.2200E+02
    -13.364  0.0000E+00  0.2200E+02
    -13.089  0.0000E+00  0.2200E+02
    -12.813  0.0000E+00  0.2200E+02
    -12.537  0.0000E+00  0.2200E+02
    -12.262  0.0000E+00  0.2200E+02
    -11.986  0.0000E+00  0.2200E+02
    -11.710  0.0000E+00  0.2200E+02
    -11.434  0.0000E+00  0.2200E+02
    -11.159  0.0000E+00  0.2200E+02
    -10.883  0.0000E+00  0.2200E+02
    -10.607  0.0000E+00  0.2200E+02
    -10.332  0.0000E+00  0.2200E+02
    -10.056  0.0000E+00  0.2200E+02
     -9.780  0.0000E+00  0.2200E+02
     -9.504  0.5084E+00  0.2221E+02
     -9.229  0.8939E+00  0.2282E+02
     -8.953  0.1053E+01  0.2396E+02
     -8.677  0.5124E+00  0.2416E+02
     -8.402  0.3666E+01  0.2650E+02
     -8.126  0.3357E+01  0.2997E+02
     -7.850  0.0000E+00  0.3000E+02
     -7.575  0.0000E+00  0.3000E+02
     -7.299  0.0000E+00  0.3000E+02
     -7.023  0.0000E+00  0.3000E+02
     -6.747  0.0000E+00  0.3000E+02
     -6.472  0.0000E+00  0.3000E+02
     -6.196  0.0000E+00  0.3000E+02
     -5.920  0.0000E+00  0.3000E+02
     -5.645  0.0000E+00  0.3000E+02
     -5.369  0.0000E+00  0.3000E+02
     -5.093  0.0000E+00  0.3000E+02
     -4.817  0.0000E+00  0.3000E+02
     -4.542  0.0000E+00  0.3000E+02
     -4.266  0.0000E+00  0.3000E+02
     -3.990  0.0000E+00  0.3000E+02
     -3.715  0.0000E+00  0.3000E+02
     -3.439  0.1403E-01  0.3000E+02
     -3.163  0.1813E+01  0.3200E+02
     -2.888  0.0000E+00  0.3200E+02
     -2.612  0.0000E+00  0.3200E+02
     -2.336  0.1228E+02  0.4001E+02
     -2.060  0.8416E+00  0.4200E+02
     -1.785  0.0000E+00  0.4200E+02
     -1.509  0.1786E-08  0.4203E+02
     -1.233  0.5082E+00  0.4250E+02
     -0.958  0.2234E+01  0.4419E+02
     -0.682  0.1136E+01  0.4484E+02
     -0.406  0.6624E+00  0.4604E+02
     -0.130  0.2348E+01  0.4741E+02
      0.145  0.2313E+01  0.4864E+02
      0.421  0.1525E+01  0.5013E+02
      0.697  0.2548E+01  0.5240E+02
      0.972  0.5237E+01  0.5519E+02
      1.248  0.6523E+00  0.5799E+02
      1.524  0.4742E+01  0.6107E+02
      1.799  0.2015E+01  0.6397E+02
      2.075  0.0000E+00  0.6400E+02
      2.351  0.0000E+00  0.6400E+02
      2.627  0.7896E+00  0.6426E+02
      2.902  0.6630E+01  0.6979E+02
      3.178  0.1882E+01  0.7285E+02
      3.454  0.3508E+01  0.7620E+02
      3.729  0.3398E+01  0.7870E+02
      4.005  0.2046E+01  0.8072E+02
      4.281  0.1739E+01  0.8263E+02
      4.557  0.1015E+00  0.8379E+02
      4.832  0.0000E+00  0.8400E+02
      5.108  0.0000E+00  0.8401E+02
      5.384  0.0000E+00  0.8401E+02
      5.659  0.2291E-01  0.8405E+02
      5.935  0.3835E+00  0.8473E+02
      6.211  0.1170E+01  0.8545E+02
      6.486  0.4030E+00  0.8600E+02
      6.762  0.1008E+00  0.8604E+02
      7.038  0.1422E-03  0.8615E+02
      7.314  0.1069E+01  0.8696E+02
      7.589  0.8785E+00  0.8806E+02
      7.865  0.1071E+01  0.8945E+02
      8.141  0.1391E+01  0.9108E+02
      8.416  0.7728E+00  0.9200E+02
      8.692  0.1245E+01  0.9313E+02
      8.968  0.9143E+00  0.9399E+02
      9.244  0.1271E+01  0.9484E+02
      9.519  0.9132E+00  0.9627E+02
      9.795  0.1426E+01  0.9760E+02
     10.071  0.1024E+01  0.9913E+02
     10.346  0.2319E+01  0.1008E+03
     10.622  0.3023E+01  0.1028E+03
     10.898  0.6190E+00  0.1038E+03
     11.174  0.0000E+00  0.1040E+03
     11.449  0.0000E+00  0.1040E+03
     11.725  0.0000E+00  0.1040E+03
     12.001  0.0000E+00  0.1040E+03
     12.276  0.0000E+00  0.1040E+03
     12.552  0.0000E+00  0.1040E+03
     12.828  0.0000E+00  0.1040E+03
     13.103  0.0000E+00  0.1040E+03
     13.379  0.0000E+00  0.1040E+03
     13.655  0.0000E+00  0.1040E+03
     13.931  0.0000E+00  0.1040E+03
     14.206  0.0000E+00  0.1040E+03
     14.482  0.0000E+00  0.1040E+03
     14.758  0.0000E+00  0.1040E+03
     15.033  0.0000E+00  0.1040E+03
     15.03339933    -67.67856199  301      4.79779412      1.00000000
    -67.679  0.0000E+00  0.0000E+00  0.0000E+00
    -67.403  0.0000E+00  0.0000E+00  0.0000E+00
    -67.127  0.0000E+00  0.0000E+00  0.0000E+00
    -66.851  0.0000E+00  0.0000E+00  0.0000E+00
    -66.576  0.0000E+00  0.0000E+00  0.0000E+00
    -66.300  0.0000E+00  0.0000E+00  0.0000E+00
    -66.024  0.0000E+00  0.0000E+00  0.0000E+00
    -65.749  0.0000E+00  0.0000E+00  0.0000E+00
    -65.473  0.0000E+00  0.0000E+00  0.0000E+00
    -65.197  0.0000E+00  0.0000E+00  0.0000E+00
    -64.921  0.0000E+00  0.0000E+00  0.0000E+00
    -64.646  0.0000E+00  0.0000E+00  0.0000E+00
    -64.370  0.0000E+00  0.0000E+00  0.0000E+00
    -64.094  0.0000E+00  0.0000E+00  0.0000E+00
    -63.819  0.2622E-08  0.2163E+02  0.9926E-05
    -63.543  0.0000E+00  0.0000E+00  0.0000E+00
    -63.267  0.0000E+00  0.0000E+00  0.0000E+00
    -62.992  0.0000E+00  0.0000E+00  0.0000E+00
    -62.716  0.0000E+00  0.0000E+00  0.0000E+00
    -62.440  0.0000E+00  0.0000E+00  0.0000E+00
    -62.164  0.0000E+00  0.0000E+00  0.0000E+00
    -61.889  0.0000E+00  0.0000E+00  0.0000E+00
    -61.613  0.0000E+00  0.0000E+00  0.0000E+00
    -61.337  0.0000E+00  0.0000E+00  0.0000E+00
    -61.062  0.0000E+00  0.0000E+00  0.0000E+00
    -60.786  0.0000E+00  0.0000E+00  0.0000E+00
    -60.510  0.0000E+00  0.0000E+00  0.0000E+00
    -60.234  0.0000E+00  0.0000E+00  0.0000E+00
    -59.959  0.0000E+00  0.0000E+00  0.0000E+00
    -59.683  0.0000E+00  0.0000E+00  0.0000E+00
    -59.407  0.0000E+00  0.0000E+00  0.0000E+00
    -59.132  0.0000E+00  0.0000E+00  0.0000E+00
    -58.856  0.0000E+00  0.0000E+00  0.0000E+00
    -58.580  0.0000E+00  0.0000E+00  0.0000E+00
    -58.305  0.0000E+00  0.0000E+00  0.0000E+00
    -58.029  0.0000E+00  0.0000E+00  0.0000E+00
    -57.753  0.0000E+00  0.0000E+00  0.0000E+00
    -57.477  0.0000E+00  0.0000E+00  0.0000E+00
    -57.202  0.0000E+00  0.0000E+00  0.0000E+00
    -56.926  0.0000E+00  0.0000E+00  0.0000E+00
    -56.650  0.0000E+00  0.0000E+00  0.0000E+00
    -56.375  0.0000E+00  0.0000E+00  0.0000E+00
    -56.099  0.0000E+00  0.0000E+00  0.0000E+00
    -55.823  0.0000E+00  0.0000E+00  0.0000E+00
    -55.547  0.0000E+00  0.0000E+00  0.0000E+00
    -55.272  0.0000E+00  0.0000E+00  0.0000E+00
    -54.996  0.0000E+00  0.0000E+00  0.0000E+00
    -54.720  0.0000E+00  0.0000E+00  0.0000E+00
    -54.445  0.0000E+00  0.0000E+00  0.0000E+00
    -54.169  0.0000E+00  0.0000E+00  0.0000E+00
    -53.893  0.0000E+00  0.0000E+00  0.0000E+00
    -53.618  0.0000E+00  0.0000E+00  0.0000E+00
    -53.342  0.0000E+00  0.0000E+00  0.0000E+00
    -53.066  0.0000E+00  0.0000E+00  0.0000E+00
    -52.790  0.0000E+00  0.0000E+00  0.0000E+00
    -52.515  0.0000E+00  0.0000E+00  0.0000E+00
    -52.239  0.0000E+00  0.0000E+00  0.0000E+00
    -51.963  0.0000E+00  0.0000E+00  0.0000E+00
    -51.688  0.0000E+00  0.0000E+00  0.0000E+00
    -51.412  0.0000E+00  0.0000E+00  0.0000E+00
    -51.136  0.0000E+00  0.0000E+00  0.0000E+00
    -50.860  0.0000E+00  0.0000E+00  0.0000E+00
    -50.585  0.0000E+00  0.0000E+00  0.0000E+00
    -50.309  0.0000E+00  0.0000E+00  0.0000E+00
    -50.033  0.0000E+00  0.0000E+00  0.0000E+00
    -49.758  0.0000E+00  0.0000E+00  0.0000E+00
    -49.482  0.0000E+00  0.0000E+00  0.0000E+00
    -49.206  0.0000E+00  0.0000E+00  0.0000E+00
    -48.931  0.0000E+00  0.0000E+00  0.0000E+00
    -48.655  0.0000E+00  0.0000E+00  0.0000E+00
    -48.379  0.0000E+00  0.0000E+00  0.0000E+00
    -48.103  0.0000E+00  0.0000E+00  0.0000E+00
    -47.828  0.0000E+00  0.0000E+00  0.0000E+00
    -47.552  0.0000E+00  0.0000E+00  0.0000E+00
    -47.276  0.0000E+00  0.0000E+00  0.0000E+00
    -47.001  0.0000E+00  0.0000E+00  0.0000E+00
    -46.725  0.0000E+00  0.0000E+00  0.0000E+00
    -46.449  0.0000E+00  0.0000E+00  0.0000E+00
    -46.173  0.0000E+00  0.0000E+00  0.0000E+00
    -45.898  0.0000E+00  0.0000E+00  0.0000E+00
    -45.622  0.0000E+00  0.0000E+00  0.0000E+00
    -45.346  0.0000E+00  0.0000E+00  0.0000E+00
    -45.071  0.0000E+00  0.0000E+00  0.0000E+00
    -44.795  0.0000E+00  0.0000E+00  0.0000E+00
    -44.519  0.0000E+00  0.0000E+00  0.0000E+00
    -44.244  0.0000E+00  0.0000E+00  0.0000E+00
    -43.968  0.0000E+00  0.0000E+00  0.0000E+00
    -43.692  0.0000E+00  0.0000E+00  0.0000E+00
    -43.416  0.0000E+00  0.0000E+00  0.0000E+00
    -43.141  0.0000E+00  0.0000E+00  0.0000E+00
    -42.865  0.0000E+00  0.0000E+00  0.0000E+00
    -42.589  0.0000E+00  0.0000E+00  0.0000E+00
    -42.314  0.0000E+00  0.0000E+00  0.0000E+00
    -42.038  0.0000E+00  0.0000E+00  0.0000E+00
    -41.762  0.0000E+00  0.0000E+00  0.0000E+00
    -41.486  0.0000E+00  0.0000E+00  0.0000E+00
    -41.211  0.0000E+00  0.0000E+00  0.0000E+00
    -40.935  0.0000E+00  0.0000E+00  0.0000E+00
    -40.659  0.0000E+00  0.0000E+00  0.0000E+00
    -40.384  0.0000E+00  0.0000E+00  0.0000E+00
    -40.108  0.0000E+00  0.0000E+00  0.0000E+00
    -39.832  0.0000E+00  0.0000E+00  0.0000E+00
    -39.556  0.0000E+00  0.0000E+00  0.0000E+00
    -39.281  0.0000E+00  0.0000E+00  0.0000E+00
    -39.005  0.0000E+00  0.0000E+00  0.0000E+00
    -38.729  0.0000E+00  0.0000E+00  0.0000E+00
    -38.454  0.0000E+00  0.0000E+00  0.0000E+00
    -38.178  0.0000E+00  0.0000E+00  0.0000E+00
    -37.902  0.0000E+00  0.0000E+00  0.0000E+00
    -37.627  0.0000E+00  0.0000E+00  0.0000E+00
    -37.351  0.0000E+00  0.0000E+00  0.0000E+00
    -37.075  0.0000E+00  0.0000E+00  0.0000E+00
    -36.799  0.0000E+00  0.0000E+00  0.0000E+00
    -36.524  0.0000E+00  0.0000E+00  0.0000E+00
    -36.248  0.0000E+00  0.0000E+00  0.0000E+00
    -35.972  0.0000E+00  0.0000E+00  0.0000E+00
    -35.697  0.0000E+00  0.0000E+00  0.0000E+00
    -35.421  0.0000E+00  0.0000E+00  0.0000E+00
    -35.145  0.0000E+00  0.0000E+00  0.0000E+00
    -34.869  0.0000E+00  0.0000E+00  0.0000E+00
    -34.594  0.0000E+00  0.0000E+00  0.0000E+00
    -34.318  0.0000E+00  0.0000E+00  0.0000E+00
    -34.042  0.0000E+00  0.0000E+00  0.0000E+00
    -33.767  0.0000E+00  0.0000E+00  0.0000E+00
    -33.491  0.0000E+00  0.0000E+00  0.0000E+00
    -33.215  0.0000E+00  0.0000E+00  0.0000E+00
    -32.940  0.0000E+00  0.0000E+00  0.0000E+00
    -32.664  0.0000E+00  0.0000E+00  0.0000E+00
    -32.388  0.0000E+00  0.0000E+00  0.0000E+00
    -32.112  0.0000E+00  0.0000E+00  0.0000E+00
    -31.837  0.0000E+00  0.0000E+00  0.0000E+00
    -31.561  0.0000E+00  0.0000E+00  0.0000E+00
    -31.285  0.0000E+00  0.0000E+00  0.0000E+00
    -31.010  0.0000E+00  0.0000E+00  0.0000E+00
    -30.734  0.0000E+00  0.0000E+00  0.0000E+00
    -30.458  0.0000E+00  0.0000E+00  0.0000E+00
    -30.182  0.0000E+00  0.0000E+00  0.0000E+00
    -29.907  0.0000E+00  0.0000E+00  0.0000E+00
    -29.631  0.0000E+00  0.0000E+00  0.0000E+00
    -29.355  0.0000E+00  0.0000E+00  0.0000E+00
    -29.080  0.0000E+00  0.0000E+00  0.0000E+00
    -28.804  0.0000E+00  0.0000E+00  0.0000E+00
    -28.528  0.0000E+00  0.0000E+00  0.0000E+00
    -28.253  0.0000E+00  0.0000E+00  0.0000E+00
    -27.977  0.0000E+00  0.0000E+00  0.0000E+00
    -27.701  0.0000E+00  0.0000E+00  0.0000E+00
    -27.425  0.0000E+00  0.0000E+00  0.0000E+00
    -27.150  0.0000E+00  0.0000E+00  0.0000E+00
    -26.874  0.0000E+00  0.0000E+00  0.0000E+00
    -26.598  0.0000E+00  0.0000E+00  0.0000E+00
    -26.323  0.0000E+00  0.0000E+00  0.0000E+00
    -26.047  0.0000E+00  0.0000E+00  0.0000E+00
    -25.771  0.0000E+00  0.0000E+00  0.0000E+00
    -25.495  0.0000E+00  0.0000E+00  0.0000E+00
    -25.220  0.0000E+00  0.0000E+00  0.0000E+00
    -24.944  0.0000E+00  0.0000E+00  0.0000E+00
    -24.668  0.0000E+00  0.0000E+00  0.0000E+00
    -24.393  0.0000E+00  0.0000E+00  0.0000E+00
    -24.117  0.0000E+00  0.0000E+00  0.0000E+00
    -23.841  0.0000E+00  0.0000E+00  0.0000E+00
    -23.566  0.0000E+00  0.0000E+00  0.0000E+00
    -23.290  0.0000E+00  0.0000E+00  0.0000E+00
    -23.014  0.0000E+00  0.0000E+00  0.0000E+00
    -22.738  0.0000E+00  0.0000E+00  0.0000E+00
    -22.463  0.0000E+00  0.0000E+00  0.0000E+00
    -22.187  0.0000E+00  0.0000E+00  0.0000E+00
    -21.911  0.0000E+00  0.0000E+00  0.0000E+00
    -21.636  0.0000E+00  0.0000E+00  0.0000E+00
    -21.360  0.0000E+00  0.0000E+00  0.0000E+00
    -21.084  0.0000E+00  0.0000E+00  0.0000E+00
    -20.808  0.0000E+00  0.0000E+00  0.0000E+00
    -20.533  0.0000E+00  0.0000E+00  0.0000E+00
    -20.257  0.0000E+00  0.0000E+00  0.0000E+00
    -19.981  0.0000E+00  0.0000E+00  0.0000E+00
    -19.706  0.0000E+00  0.0000E+00  0.0000E+00
    -19.430  0.0000E+00  0.0000E+00  0.0000E+00
    -19.154  0.0000E+00  0.0000E+00  0.0000E+00
    -18.879  0.0000E+00  0.0000E+00  0.0000E+00
    -18.603  0.0000E+00  0.0000E+00  0.0000E+00
    -18.327  0.0000E+00  0.0000E+00  0.0000E+00
    -18.051  0.0000E+00  0.0000E+00  0.0000E+00
    -17.776  0.0000E+00  0.0000E+00  0.0000E+00
    -17.500  0.0000E+00  0.0000E+00  0.0000E+00
    -17.224  0.0000E+00  0.0000E+00  0.0000E+00
    -16.949  0.0000E+00  0.0000E+00  0.0000E+00
    -16.673  0.0000E+00  0.0000E+00  0.0000E+00
    -16.397  0.0000E+00  0.0000E+00  0.0000E+00
    -16.121  0.0000E+00  0.0000E+00  0.0000E+00
    -15.846  0.0000E+00  0.0000E+00  0.0000E+00
    -15.570  0.0000E+00  0.0000E+00  0.0000E+00
    -15.294  0.0000E+00  0.0000E+00  0.0000E+00
    -15.019  0.0000E+00  0.0000E+00  0.0000E+00
    -14.743  0.0000E+00  0.0000E+00  0.0000E+00
    -14.467  0.0000E+00  0.0000E+00  0.0000E+00
    -14.191  0.0000E+00  0.0000E+00  0.0000E+00
    -13.916  0.0000E+00  0.0000E+00  0.0000E+00
    -13.640  0.0000E+00  0.0000E+00  0.0000E+00
    -13.364  0.0000E+00  0.0000E+00  0.0000E+00
    -13.089  0.0000E+00  0.0000E+00  0.0000E+00
    -12.813  0.0000E+00  0.0000E+00  0.0000E+00
    -12.537  0.0000E+00  0.0000E+00  0.0000E+00
    -12.262  0.0000E+00  0.0000E+00  0.0000E+00
    -11.986  0.0000E+00  0.0000E+00  0.0000E+00
    -11.710  0.0000E+00  0.0000E+00  0.0000E+00
    -11.434  0.0000E+00  0.0000E+00  0.0000E+00
    -11.159  0.0000E+00  0.0000E+00  0.0000E+00
    -10.883  0.0000E+00  0.0000E+00  0.0000E+00
    -10.607  0.0000E+00  0.0000E+00  0.0000E+00
    -10.332  0.0000E+00  0.0000E+00  0.0000E+00
    -10.056  0.0000E+00  0.0000E+00  0.0000E+00
     -9.780  0.0000E+00  0.0000E+00  0.0000E+00
     -9.504  0.3805E-02  0.1927E-03  0.1744E-03
     -9.229  0.3794E-02  0.1112E-02  0.1149E-02
     -8.953  0.1215E-02  0.2108E-02  0.2522E-02
     -8.677  0.4178E-02  0.5088E-03  0.5645E-03
     -8.402  0.1405E-01  0.7250E-02  0.9574E-02
     -8.126  0.1283E-02  0.9744E-02  0.1340E-01
     -7.850  0.0000E+00  0.0000E+00  0.0000E+00
     -7.575  0.0000E+00  0.0000E+00  0.0000E+00
     -7.299  0.0000E+00  0.0000E+00  0.0000E+00
     -7.023  0.0000E+00  0.0000E+00  0.0000E+00
     -6.747  0.0000E+00  0.0000E+00  0.0000E+00
     -6.472  0.0000E+00  0.0000E+00  0.0000E+00
     -6.196  0.0000E+00  0.0000E+00  0.0000E+00
     -5.920  0.0000E+00  0.0000E+00  0.0000E+00
     -5.645  0.0000E+00  0.0000E+00  0.0000E+00
     -5.369  0.0000E+00  0.0000E+00  0.0000E+00
     -5.093  0.0000E+00  0.0000E+00  0.0000E+00
     -4.817  0.0000E+00  0.0000E+00  0.0000E+00
     -4.542  0.0000E+00  0.0000E+00  0.0000E+00
     -4.266  0.0000E+00  0.0000E+00  0.0000E+00
     -3.990  0.0000E+00  0.0000E+00  0.0000E+00
     -3.715  0.0000E+00  0.0000E+00  0.0000E+00
     -3.439  0.1895E-10  0.5429E-05  0.1082E-03
     -3.163  0.3560E-02  0.2548E-02  0.6289E-02
     -2.888  0.0000E+00  0.0000E+00  0.0000E+00
     -2.612  0.0000E+00  0.0000E+00  0.0000E+00
     -2.336  0.4544E-02  0.2847E-02  0.8633E-02
     -2.060  0.9300E-03  0.8552E-03  0.4085E-02
     -1.785  0.0000E+00  0.0000E+00  0.0000E+00
     -1.509  0.3169E-10  0.5855E-11  0.3515E-11
     -1.233  0.1476E-02  0.1959E-02  0.5505E-02
     -0.958  0.3010E-01  0.2393E-02  0.3574E-01
     -0.682  0.3143E-01  0.2613E-02  0.1516E-01
     -0.406  0.2198E-01  0.1064E-02  0.1296E-01
     -0.130  0.4243E-01  0.5574E-02  0.6619E-01
      0.145  0.1504E-01  0.1360E-01  0.9236E-01
      0.421  0.8777E-02  0.9203E-02  0.9240E-01
      0.697  0.2358E-01  0.1617E-01  0.2120E+00
      0.972  0.1376E-01  0.4301E-01  0.5595E+00
      1.248  0.1057E-02  0.1662E-02  0.5073E-01
      1.524  0.2339E-02  0.2766E-01  0.7295E+00
      1.799  0.3179E-02  0.4398E-02  0.2306E+00
      2.075  0.0000E+00  0.0000E+00  0.0000E+00
      2.351  0.0000E+00  0.0000E+00  0.0000E+00
      2.627  0.1393E-03  0.1738E-03  0.1907E+00
      2.902  0.1010E-01  0.4152E-02  0.2375E+01
      3.178  0.2032E-02  0.6274E-02  0.7496E+00
      3.454  0.4248E-02  0.1693E-01  0.1052E+01
      3.729  0.6895E-02  0.1861E-01  0.1057E+01
      4.005  0.3384E-02  0.1541E-01  0.6151E+00
      4.281  0.8675E-03  0.1421E-01  0.4667E+00
      4.557  0.4137E-05  0.5513E-03  0.2504E-01
      4.832  0.0000E+00  0.0000E+00  0.0000E+00
      5.108  0.0000E+00  0.0000E+00  0.0000E+00
      5.384  0.0000E+00  0.0000E+00  0.0000E+00
      5.659  0.1856E-03  0.4002E-04  0.8216E-03
      5.935  0.1345E-02  0.8060E-03  0.1256E-01
      6.211  0.1072E-02  0.2172E-02  0.4937E-01
      6.486  0.5507E-03  0.1181E-02  0.1222E-01
      6.762  0.5835E-14  0.1012E-02  0.5512E-02
      7.038  0.3840E-07  0.7330E-06  0.5310E-05
      7.314  0.2360E-01  0.6354E-02  0.2359E-01
      7.589  0.8031E-02  0.5337E-02  0.2381E-01
      7.865  0.7122E-02  0.5876E-02  0.2001E-01
      8.141  0.3116E-01  0.9971E-02  0.2133E-01
      8.416  0.1803E-01  0.2596E-02  0.8070E-02
      8.692  0.1662E-01  0.6768E-02  0.1694E-01
      8.968  0.1491E-01  0.4613E-02  0.1231E-01
      9.244  0.4859E-01  0.1159E-01  0.1661E-01
      9.519  0.3993E-01  0.3235E-02  0.9242E-02
      9.795  0.3508E-01  0.1687E-01  0.1342E-01
     10.071  0.3667E-01  0.1329E-01  0.1089E-01
     10.346  0.5215E-01  0.3050E-01  0.3193E-01
     10.622  0.8365E-01  0.4041E-01  0.3115E-01
     10.898  0.2387E-01  0.6391E-02  0.5991E-02
     11.174  0.0000E+00  0.0000E+00  0.0000E+00
     11.449  0.0000E+00  0.0000E+00  0.0000E+00
     11.725  0.0000E+00  0.0000E+00  0.0000E+00
     12.001  0.0000E+00  0.0000E+00  0.0000E+00
     12.276  0.0000E+00  0.0000E+00  0.0000E+00
     12.552  0.0000E+00  0.0000E+00  0.0000E+00
     12.828  0.0000E+00  0.0000E+00  0.0000E+00
     13.103  0.0000E+00  0.0000E+00  0.0000E+00
     13.379  0.0000E+00  0.0000E+00  0.0000E+00
     13.655  0.0000E+00  0.0000E+00  0.0000E+00
     13.931  0.0000E+00  0.0000E+00  0.0000E+00
     14.206  0.0000E+00  0.0000E+00  0.0000E+00
     14.482  0.0000E+00  0.0000E+00  0.0000E+00
     14.758  0.0000E+00  0.0000E+00  0.0000E+00
     15.033  0.0000E+00  0.0000E+00  0.0000E+00
     15.03339933    -67.67856199  301      4.79779412      1.00000000
    -67.679  0.0000E+00  0.0000E+00  0.0000E+00
    -67.403  0.0000E+00  0.0000E+00  0.0000E+00
    -67.127  0.0000E+00  0.0000E+00  0.0000E+00
    -66.851  0.0000E+00  0.0000E+00  0.0000E+00
    -66.576  0.0000E+00  0.0000E+00  0.0000E+00
    -66.300  0.0000E+00  0.0000E+00  0.0000E+00
    -66.024  0.0000E+00  0.0000E+00  0.0000E+00
    -65.749  0.0000E+00  0.0000E+00  0.0000E+00
    -65.473  0.0000E+00  0.0000E+00  0.0000E+00
    -65.197  0.0000E+00  0.0000E+00  0.0000E+00
    -64.921  0.0000E+00  0.0000E+00  0.0000E+00
    -64.646  0.0000E+00  0.0000E+00  0.0000E+00
    -64.370  0.0000E+00  0.0000E+00  0.0000E+00
    -64.094  0.0000E+00  0.0000E+00  0.0000E+00
    -63.819  0.2475E-08  0.1446E+02  0.6336E-05
    -63.543  0.0000E+00  0.0000E+00  0.0000E+00
    -63.267  0.0000E+00  0.0000E+00  0.0000E+00
    -62.992  0.0000E+00  0.0000E+00  0.0000E+00
    -62.716  0.0000E+00  0.0000E+00  0.0000E+00
    -62.440  0.0000E+00  0.0000E+00  0.0000E+00
    -62.164  0.0000E+00  0.0000E+00  0.0000E+00
    -61.889  0.0000E+00  0.0000E+00  0.0000E+00
    -61.613  0.0000E+00  0.0000E+00  0.0000E+00
    -61.337  0.0000E+00  0.0000E+00  0.0000E+00
    -61.062  0.0000E+00  0.0000E+00  0.0000E+00
    -60.786  0.0000E+00  0.0000E+00  0.0000E+00
    -60.510  0.0000E+00  0.0000E+00  0.0000E+00
    -60.234  0.0000E+00  0.0000E+00  0.0000E+00
    -59.959  0.0000E+00  0.0000E+00  0.0000E+00
    -59.683  0.0000E+00  0.0000E+00  0.0000E+00
    -59.407  0.0000E+00  0.0000E+00  0.0000E+00
    -59.132  0.0000E+00  0.0000E+00  0.0000E+00
    -58.856  0.0000E+00  0.0000E+00  0.0000E+00
    -58.580  0.0000E+00  0.0000E+00  0.0000E+00
    -58.305  0.0000E+00  0.0000E+00  0.0000E+00
    -58.029  0.0000E+00  0.0000E+00  0.0000E+00
    -57.753  0.0000E+00  0.0000E+00  0.0000E+00
    -57.477  0.0000E+00  0.0000E+00  0.0000E+00
    -57.202  0.0000E+00  0.0000E+00  0.0000E+00
    -56.926  0.0000E+00  0.0000E+00  0.0000E+00
    -56.650  0.0000E+00  0.0000E+00  0.0000E+00
    -56.375  0.0000E+00  0.0000E+00  0.0000E+00
    -56.099  0.0000E+00  0.0000E+00  0.0000E+00
    -55.823  0.0000E+00  0.0000E+00  0.0000E+00
    -55.547  0.0000E+00  0.0000E+00  0.0000E+00
    -55.272  0.0000E+00  0.0000E+00  0.0000E+00
    -54.996  0.0000E+00  0.0000E+00  0.0000E+00
    -54.720  0.0000E+00  0.0000E+00  0.0000E+00
    -54.445  0.0000E+00  0.0000E+00  0.0000E+00
    -54.169  0.0000E+00  0.0000E+00  0.0000E+00
    -53.893  0.0000E+00  0.0000E+00  0.0000E+00
    -53.618  0.0000E+00  0.0000E+00  0.0000E+00
    -53.342  0.0000E+00  0.0000E+00  0.0000E+00
    -53.066  0.0000E+00  0.0000E+00  0.0000E+00
    -52.790  0.0000E+00  0.0000E+00  0.0000E+00
    -52.515  0.0000E+00  0.0000E+00  0.0000E+00
    -52.239  0.0000E+00  0.0000E+00  0.0000E+00
    -51.963  0.0000E+00  0.0000E+00  0.0000E+00
    -51.688  0.0000E+00  0.0000E+00  0.0000E+00
    -51.412  0.0000E+00  0.0000E+00  0.0000E+00
    -51.136  0.0000E+00  0.0000E+00  0.0000E+00
    -50.860  0.0000E+00  0.0000E+00  0.0000E+00
    -50.585  0.0000E+00  0.0000E+00  0.0000E+00
    -50.309  0.0000E+00  0.0000E+00  0.0000E+00
    -50.033  0.0000E+00  0.0000E+00  0.0000E+00
    -49.758  0.0000E+00  0.0000E+00  0.0000E+00
    -49.482  0.0000E+00  0.0000E+00  0.0000E+00
    -49.206  0.0000E+00  0.0000E+00  0.0000E+00
    -48.931  0.0000E+00  0.0000E+00  0.0000E+00
    -48.655  0.0000E+00  0.0000E+00  0.0000E+00
    -48.379  0.0000E+00  0.0000E+00  0.0000E+00
    -48.103  0.0000E+00  0.0000E+00  0.0000E+00
    -47.828  0.0000E+00  0.0000E+00  0.0000E+00
    -47.552  0.0000E+00  0.0000E+00  0.0000E+00
    -47.276  0.0000E+00  0.0000E+00  0.0000E+00
    -47.001  0.0000E+00  0.0000E+00  0.0000E+00
    -46.725  0.0000E+00  0.0000E+00  0.0000E+00
    -46.449  0.0000E+00  0.0000E+00  0.0000E+00
    -46.173  0.0000E+00  0.0000E+00  0.0000E+00
    -45.898  0.0000E+00  0.0000E+00  0.0000E+00
    -45.622  0.0000E+00  0.0000E+00  0.0000E+00
    -45.346  0.0000E+00  0.0000E+00  0.0000E+00
    -45.071  0.0000E+00  0.0000E+00  0.0000E+00
    -44.795  0.0000E+00  0.0000E+00  0.0000E+00
    -44.519  0.0000E+00  0.0000E+00  0.0000E+00
    -44.244  0.0000E+00  0.0000E+00  0.0000E+00
    -43.968  0.0000E+00  0.0000E+00  0.0000E+00
    -43.692  0.0000E+00  0.0000E+00  0.0000E+00
    -43.416  0.0000E+00  0.0000E+00  0.0000E+00
    -43.141  0.0000E+00  0.0000E+00  0.0000E+00