       N       E                     dE             d eps       ncg     rms          rms(c)
DAV:   1     0.961012362438E+03    0.96101E+03   -0.44457E+04 81360   0.198E+03
DAV:   2     0.983555980768E+02   -0.86266E+03   -0.83660E+03 68272   0.597E+02
DAV:   3    -0.294988599754E+02   -0.12785E+03   -0.12440E+03 75404   0.208E+02
DAV:   4    -0.377015551974E+02   -0.82027E+01   -0.81159E+01 80296   0.512E+01
DAV:   5    -0.379744845473E+02   -0.27293E+00   -0.27250E+00 90688   0.102E+01
DAV:   6    -0.379846080359E+02   -0.10123E-01   -0.10121E-01 92908   0.168E+00
DAV:   7    -0.379850108264E+02   -0.40279E-03   -0.40277E-03 98044   0.280E-01
DAV:   8    -0.379850151276E+02   -0.43012E-05   -0.43011E-05 88164   0.318E-02
DAV:   9    -0.379850151980E+02   -0.70375E-07   -0.70438E-07 55060   0.475E-03
   1 F= -.37985015E+02 E0= -.37985015E+02  d E =-.356149E-15
