  96  96   0   0
  0.2080188E+02  0.1257760E-08  0.1245754E-08  0.1274818E-08  0.5000000E-15
  1.000000000000000E-004
  CAR 
 MAPbI3-Cubic                            
      8.79969172    -19.19111231  301      1.19552330      1.00000000
    -19.191  0.0000E+00  0.0000E+00
    -19.098  0.0000E+00  0.0000E+00
    -19.005  0.0000E+00  0.0000E+00
    -18.911  0.0000E+00  0.0000E+00
    -18.818  0.0000E+00  0.0000E+00
    -18.725  0.0000E+00  0.0000E+00
    -18.631  0.0000E+00  0.0000E+00
    -18.538  0.0000E+00  0.0000E+00
    -18.445  0.0000E+00  0.0000E+00
    -18.351  0.0000E+00  0.0000E+00
    -18.258  0.0000E+00  0.0000E+00
    -18.165  0.0000E+00  0.0000E+00
    -18.071  0.0000E+00  0.0000E+00
    -17.978  0.0000E+00  0.0000E+00
    -17.885  0.0000E+00  0.8000E+01
    -17.792  0.0000E+00  0.1600E+02
    -17.698  0.0000E+00  0.1600E+02
    -17.605  0.0000E+00  0.1600E+02
    -17.512  0.0000E+00  0.1600E+02
    -17.418  0.0000E+00  0.1600E+02
    -17.325  0.0000E+00  0.1600E+02
    -17.232  0.0000E+00  0.1600E+02
    -17.138  0.0000E+00  0.1600E+02
    -17.045  0.0000E+00  0.1600E+02
    -16.952  0.0000E+00  0.1600E+02
    -16.859  0.0000E+00  0.1600E+02
    -16.765  0.0000E+00  0.1600E+02
    -16.672  0.0000E+00  0.1600E+02
    -16.579  0.0000E+00  0.1600E+02
    -16.485  0.0000E+00  0.1600E+02
    -16.392  0.0000E+00  0.1600E+02
    -16.299  0.0000E+00  0.1600E+02
    -16.205  0.0000E+00  0.1600E+02
    -16.112  0.0000E+00  0.1600E+02
    -16.019  0.0000E+00  0.1600E+02
    -15.926  0.0000E+00  0.1600E+02
    -15.832  0.0000E+00  0.1600E+02
    -15.739  0.0000E+00  0.1600E+02
    -15.646  0.0000E+00  0.1600E+02
    -15.552  0.0000E+00  0.1600E+02
    -15.459  0.0000E+00  0.1600E+02
    -15.366  0.0000E+00  0.1600E+02
    -15.272  0.0000E+00  0.1600E+02
    -15.179  0.9507E+02  0.2843E+02
    -15.086  0.0000E+00  0.9600E+02
    -14.992  0.0000E+00  0.9600E+02
    -14.899  0.0000E+00  0.9600E+02
    -14.806  0.0000E+00  0.9600E+02
    -14.713  0.0000E+00  0.9600E+02
    -14.619  0.0000E+00  0.9600E+02
    -14.526  0.0000E+00  0.9600E+02
    -14.433  0.0000E+00  0.9600E+02
    -14.339  0.0000E+00  0.9600E+02
    -14.246  0.0000E+00  0.9600E+02
    -14.153  0.0000E+00  0.9600E+02
    -14.059  0.0000E+00  0.9600E+02
    -13.966  0.0000E+00  0.9600E+02
    -13.873  0.0000E+00  0.9600E+02
    -13.780  0.0000E+00  0.9600E+02
    -13.686  0.0000E+00  0.9600E+02
    -13.593  0.0000E+00  0.9600E+02
    -13.500  0.0000E+00  0.9600E+02
    -13.406  0.0000E+00  0.9600E+02
    -13.313  0.0000E+00  0.9600E+02
    -13.220  0.0000E+00  0.9600E+02
    -13.126  0.0000E+00  0.9600E+02
    -13.033  0.0000E+00  0.9600E+02
    -12.940  0.0000E+00  0.9600E+02
    -12.847  0.0000E+00  0.9600E+02
    -12.753  0.0000E+00  0.9600E+02
    -12.660  0.0000E+00  0.9600E+02
    -12.567  0.0000E+00  0.9600E+02
    -12.473  0.0000E+00  0.9600E+02
    -12.380  0.0000E+00  0.9600E+02
    -12.287  0.0000E+00  0.9600E+02
    -12.193  0.0000E+00  0.9600E+02
    -12.100  0.0000E+00  0.9600E+02
    -12.007  0.0000E+00  0.9600E+02
    -11.914  0.0000E+00  0.9600E+02
    -11.820  0.0000E+00  0.9600E+02
    -11.727  0.0000E+00  0.9600E+02
    -11.634  0.0000E+00  0.9600E+02
    -11.540  0.0000E+00  0.9600E+02
    -11.447  0.0000E+00  0.9600E+02
    -11.354  0.0000E+00  0.9600E+02
    -11.260  0.0000E+00  0.9600E+02
    -11.167  0.0000E+00  0.1040E+03
    -11.074  0.0000E+00  0.1040E+03
    -10.980  0.0000E+00  0.1120E+03
    -10.887  0.0000E+00  0.1120E+03
    -10.794  0.7939E+00  0.1121E+03
    -10.701  0.6351E+01  0.1139E+03
    -10.607  0.3044E+01  0.1182E+03
    -10.514  0.9858E+01  0.1247E+03
    -10.421  0.8533E-09  0.1282E+03
    -10.327  0.8897E+01  0.1311E+03
    -10.234  0.5432E+01  0.1374E+03
    -10.141  0.3176E+01  0.1438E+03
    -10.047  0.1111E+02  0.1541E+03
     -9.954  0.0000E+00  0.1600E+03
     -9.861  0.0000E+00  0.1600E+03
     -9.768  0.0000E+00  0.1600E+03
     -9.674  0.0000E+00  0.1600E+03
     -9.581  0.0000E+00  0.1600E+03
     -9.488  0.0000E+00  0.1600E+03
     -9.394  0.0000E+00  0.1600E+03
     -9.301  0.0000E+00  0.1600E+03
     -9.208  0.0000E+00  0.1600E+03
     -9.114  0.0000E+00  0.1600E+03
     -9.021  0.0000E+00  0.1600E+03
     -8.928  0.0000E+00  0.1600E+03
     -8.835  0.0000E+00  0.1600E+03
     -8.741  0.0000E+00  0.1600E+03
     -8.648  0.0000E+00  0.1600E+03
     -8.555  0.0000E+00  0.1600E+03
     -8.461  0.0000E+00  0.1600E+03
     -8.368  0.0000E+00  0.1600E+03
     -8.275  0.0000E+00  0.1600E+03
     -8.181  0.0000E+00  0.1600E+03
     -8.088  0.0000E+00  0.1600E+03
     -7.995  0.0000E+00  0.1600E+03
     -7.901  0.0000E+00  0.1600E+03
     -7.808  0.0000E+00  0.1600E+03
     -7.715  0.0000E+00  0.1600E+03
     -7.622  0.0000E+00  0.1600E+03
     -7.528  0.0000E+00  0.1600E+03
     -7.435  0.0000E+00  0.1680E+03
     -7.342  0.0000E+00  0.1840E+03
     -7.248  0.0000E+00  0.1920E+03
     -7.155  0.0000E+00  0.1920E+03
     -7.062  0.0000E+00  0.1920E+03
     -6.968  0.0000E+00  0.1921E+03
     -6.875  0.3155E+01  0.1925E+03
     -6.782  0.2306E-02  0.1925E+03
     -6.689  0.0000E+00  0.1934E+03
     -6.595  0.0000E+00  0.1944E+03
     -6.502  0.0000E+00  0.1963E+03
     -6.409  0.3176E+01  0.1985E+03
     -6.315  0.3176E+01  0.1997E+03
     -6.222  0.3146E+01  0.2012E+03
     -6.129  0.1588E+01  0.2034E+03
     -6.035  0.4763E+01  0.2055E+03
     -5.942  0.0000E+00  0.2064E+03
     -5.849  0.1588E+01  0.2075E+03
     -5.756  0.3032E-01  0.2078E+03
     -5.662  0.9410E+01  0.2153E+03
     -5.569  0.0000E+00  0.2160E+03
     -5.476  0.5385E-01  0.2160E+03
     -5.382  0.7939E+00  0.2240E+03
     -5.289  0.0000E+00  0.2240E+03
     -5.196  0.0000E+00  0.2240E+03
     -5.102  0.0000E+00  0.2240E+03
     -5.009  0.0000E+00  0.2240E+03
     -4.916  0.0000E+00  0.2240E+03
     -4.822  0.0000E+00  0.2240E+03
     -4.729  0.0000E+00  0.2240E+03
     -4.636  0.0000E+00  0.2240E+03
     -4.543  0.0000E+00  0.2240E+03
     -4.449  0.0000E+00  0.2240E+03
     -4.356  0.0000E+00  0.2240E+03
     -4.263  0.0000E+00  0.2240E+03
     -4.169  0.0000E+00  0.2240E+03
     -4.076  0.0000E+00  0.2240E+03
     -3.983  0.0000E+00  0.2240E+03
     -3.889  0.0000E+00  0.2240E+03
     -3.796  0.0000E+00  0.2240E+03
     -3.703  0.0000E+00  0.2240E+03
     -3.610  0.0000E+00  0.2240E+03
     -3.516  0.2145E+02  0.2266E+03
     -3.423  0.2631E+02  0.2437E+03
     -3.330  0.0000E+00  0.2560E+03
     -3.236  0.0000E+00  0.2560E+03
     -3.143  0.0000E+00  0.2560E+03
     -3.050  0.0000E+00  0.2560E+03
     -2.956  0.0000E+00  0.2560E+03
     -2.863  0.0000E+00  0.2560E+03
     -2.770  0.0000E+00  0.2560E+03
     -2.677  0.0000E+00  0.2560E+03
     -2.583  0.0000E+00  0.2560E+03
     -2.490  0.0000E+00  0.2560E+03
     -2.397  0.0000E+00  0.2560E+03
     -2.303  0.0000E+00  0.2560E+03
     -2.210  0.0000E+00  0.2560E+03
     -2.117  0.0000E+00  0.2560E+03
     -2.023  0.2930E+01  0.2574E+03
     -1.930  0.1588E+01  0.2589E+03
     -1.837  0.5557E+01  0.2606E+03
     -1.744  0.3176E+01  0.2631E+03
     -1.650  0.3021E+01  0.2662E+03
     -1.557  0.7663E+00  0.2698E+03
     -1.464  0.1642E-02  0.2729E+03
     -1.370  0.1588E+01  0.2766E+03
     -1.277  0.4747E+01  0.2794E+03
     -1.184  0.0000E+00  0.2800E+03
     -1.090  0.0000E+00  0.2800E+03
     -0.997  0.7939E+00  0.2802E+03
     -0.904  0.1220E+02  0.2834E+03
     -0.810  0.1867E+02  0.2905E+03
     -0.717  0.5870E+01  0.2945E+03
     -0.624  0.4763E+01  0.3004E+03
     -0.531  0.7939E+00  0.3036E+03
     -0.437  0.4592E+01  0.3081E+03
     -0.344  0.5969E+01  0.3116E+03
     -0.251  0.6351E+01  0.3175E+03
     -0.157  0.8013E+00  0.3239E+03
     -0.064  0.4615E+01  0.3301E+03
      0.029  0.9716E+01  0.3374E+03
      0.123  0.7449E+01  0.3451E+03
      0.216  0.1350E+02  0.3557E+03
      0.309  0.1186E+02  0.3644E+03
      0.402  0.4918E+01  0.3704E+03
      0.496  0.1440E+02  0.3802E+03
      0.589  0.6989E+01  0.3875E+03
      0.682  0.2027E+01  0.3942E+03
      0.776  0.6320E+01  0.3973E+03
      0.869  0.1588E+01  0.3988E+03
      0.962  0.1537E-03  0.3993E+03
      1.056  0.0000E+00  0.3999E+03
      1.149  0.0000E+00  0.3999E+03
      1.242  0.0000E+00  0.4000E+03
      1.335  0.0000E+00  0.4000E+03
      1.429  0.0000E+00  0.4000E+03
      1.522  0.0000E+00  0.4000E+03
      1.615  0.0000E+00  0.4000E+03
      1.709  0.0000E+00  0.4000E+03
      1.802  0.0000E+00  0.4000E+03
      1.895  0.0000E+00  0.4000E+03
      1.989  0.0000E+00  0.4000E+03
      2.082  0.0000E+00  0.4000E+03
      2.175  0.0000E+00  0.4000E+03
      2.269  0.0000E+00  0.4000E+03
      2.362  0.0000E+00  0.4000E+03
      2.455  0.0000E+00  0.4000E+03
      2.548  0.0000E+00  0.4000E+03
      2.642  0.0000E+00  0.4000E+03
      2.735  0.0000E+00  0.4000E+03
      2.828  0.0000E+00  0.4000E+03
      2.922  0.0000E+00  0.4000E+03
      3.015  0.0000E+00  0.4007E+03
      3.108  0.0000E+00  0.4007E+03
      3.202  0.0000E+00  0.4022E+03
      3.295  0.0000E+00  0.4035E+03
      3.388  0.4481E+01  0.4052E+03
      3.481  0.1120E+01  0.4064E+03
      3.575  0.1588E+01  0.4077E+03
      3.668  0.6562E-10  0.4081E+03
      3.761  0.0000E+00  0.4090E+03
      3.855  0.1588E+01  0.4101E+03
      3.948  0.1538E+01  0.4114E+03
      4.041  0.0000E+00  0.4139E+03
      4.135  0.7784E+01  0.4166E+03
      4.228  0.4493E+01  0.4194E+03
      4.321  0.1588E+01  0.4228E+03
      4.414  0.1234E-03  0.4236E+03
      4.508  0.0000E+00  0.4239E+03
      4.601  0.0000E+00  0.4240E+03
      4.694  0.0000E+00  0.4240E+03
      4.788  0.0000E+00  0.4240E+03
      4.881  0.0000E+00  0.4240E+03
      4.974  0.0000E+00  0.4240E+03
      5.068  0.3176E+01  0.4253E+03
      5.161  0.4763E+01  0.4282E+03
      5.254  0.0000E+00  0.4299E+03
      5.347  0.3177E+01  0.4329E+03
      5.441  0.0000E+00  0.4360E+03
      5.534  0.0000E+00  0.4390E+03
      5.627  0.0000E+00  0.4416E+03
      5.721  0.0000E+00  0.4430E+03
      5.814  0.1578E+01  0.4453E+03
      5.907  0.1588E+01  0.4483E+03
      6.001  0.1588E+01  0.4510E+03
      6.094  0.6459E-07  0.4525E+03
      6.187  0.4519E+01  0.4569E+03
      6.281  0.3176E+01  0.4601E+03
      6.374  0.7282E+00  0.4624E+03
      6.467  0.1399E+01  0.4648E+03
      6.560  0.3632E+01  0.4696E+03
      6.654  0.3176E+01  0.4744E+03
      6.747  0.2648E+01  0.4790E+03
      6.840  0.7888E+01  0.4836E+03
      6.934  0.1155E+01  0.4867E+03
      7.027  0.1588E+01  0.4901E+03
      7.120  0.2397E+01  0.4948E+03
      7.214  0.1949E+01  0.5000E+03
      7.307  0.8251E+00  0.5038E+03
      7.400  0.4463E+01  0.5089E+03
      7.493  0.7940E+00  0.5116E+03
      7.587  0.0000E+00  0.5120E+03
      7.680  0.0000E+00  0.5120E+03
      7.773  0.0000E+00  0.5120E+03
      7.867  0.0000E+00  0.5120E+03
      7.960  0.0000E+00  0.5120E+03
      8.053  0.0000E+00  0.5120E+03
      8.147  0.0000E+00  0.5120E+03
      8.240  0.0000E+00  0.5120E+03
      8.333  0.0000E+00  0.5120E+03
      8.426  0.0000E+00  0.5120E+03
      8.520  0.0000E+00  0.5120E+03
      8.613  0.0000E+00  0.5120E+03
      8.706  0.0000E+00  0.5120E+03
      8.800  0.0000E+00  0.5120E+03
