Name                                    
   5.65360000000000     
     0.500000    0.500000    0.000000
     0.500000    0.000000   -0.500000
     0.000000    0.500000   -0.500000
   Ga   As
     1     1
Direct
  0.000000  0.000000  0.000000
  0.250000  0.250000  0.250000
 
   60   60   60
 0.74495688128E+03 0.73254054528E+03 0.69643666156E+03 0.63990250664E+03 0.56781685840E+03
 0.48599342790E+03 0.40045064062E+03 0.31677559241E+03 0.23966289075E+03 0.17263686588E+03
 0.11791437676E+03 0.76358618826E+02 0.47506289470E+02 0.29690312085E+02 0.20292568729E+02
 0.16133646831E+02 0.14021458893E+02 0.12422507792E+02 0.11205081466E+02 0.10275421736E+02
 0.95531827128E+01 0.89810619572E+01 0.85223066433E+01 0.81540532000E+01 0.78611264863E+01
 0.76320461266E+01 0.74572801246E+01 0.73289666828E+01 0.72411516636E+01 0.71898865297E+01
 0.71730209762E+01 0.71898868053E+01 0.72411520544E+01 0.73289669595E+01 0.74572801197E+01
 0.76320458304E+01 0.78611260516E+01 0.81540528534E+01 0.85223065525E+01 0.89810621322E+01
 0.95531830024E+01 0.10275421926E+02 0.11205081425E+02 0.12422507581E+02 0.14021458760E+02
 0.16133647077E+02 0.20292569512E+02 0.29690313251E+02 0.47506290528E+02 0.76358619095E+02
 0.11791437566E+03 0.17263686320E+03 0.23966288681E+03 0.31677558802E+03 0.40045063676E+03
 0.48599342538E+03 0.56781685752E+03 0.63990250711E+03 0.69643666262E+03 0.73254054608E+03
 0.73254054528E+03 0.70823181986E+03 0.66184739789E+03 0.59750885248E+03 0.52062093028E+03
 0.43714573978E+03 0.35290765470E+03 0.27304194929E+03 0.20163120387E+03 0.14150794713E+03
 0.94171670272E+02 0.59783168477E+02 0.37239137298E+02 0.24358660469E+02 0.18205622804E+02
 0.15529422309E+02 0.13763179401E+02 0.12414845695E+02 0.11394031613E+02 0.10612189701E+02
 0.10001229344E+02 0.95156816748E+01 0.91272361647E+01 0.88179284182E+01 0.85749869748E+01
 0.83880850412E+01 0.82485191770E+01 0.81493551260E+01 0.80856744643E+01 0.80545066939E+01
 0.80545067751E+01 0.80856746531E+01 0.81493552839E+01 0.82485191711E+01 0.83880848191E+01
 0.85749866061E+01 0.88179280529E+01 0.91272359557E+01 0.95156816842E+01 0.10001229516E+02
 0.10612189892E+02 0.11394031699E+02 0.12414845654E+02 0.13763179365E+02 0.15529422495E+02
 0.18205623386E+02 0.24358661432E+02 0.37239138364E+02 0.59783169154E+02 0.94171670022E+02
 0.14150794561E+03 0.20163120108E+03 0.27304194566E+03 0.35290765092E+03 0.43714573660E+03
 0.52062092819E+03 0.59750885156E+03 0.66184739785E+03 0.70823182016E+03 0.73254054544E+03
 0.69643666156E+03 0.66184739789E+03 0.60771330906E+03 0.53874420172E+03 0.46054848387E+03
 0.37892600236E+03 0.29925174833E+03 0.22602783350E+03 0.16261232157E+03 0.11108546932E+03
 0.72207865553E+02 0.45454682437E+02 0.29145987503E+02 0.20702746941E+02 0.17031239947E+02
 0.15097921728E+02 0.13631307843E+02 0.12526110362E+02 0.11690752674E+02 0.11048172187E+02
 0.10544058990E+02 0.10143874542E+02 0.98261674194E+01 0.95765280851E+01 0.93838076829E+01
 0.92385842982E+01 0.91330528266E+01 0.90613525747E+01 0.90196708701E+01 0.90059826972E+01
 0.90196708944E+01 0.90613525780E+01 0.91330527484E+01 0.92385841058E+01 0.93838073985E+01
 0.95765277840E+01 0.98261671922E+01 0.10143874449E+02 0.10544059025E+02 0.11048172289E+02
 0.11690752763E+02 0.12526110401E+02 0.13631307873E+02 0.15097921864E+02 0.17031240314E+02
 0.20702747594E+02 0.29145988354E+02 0.45454683246E+02 0.72207865981E+02 0.11108546906E+03
 0.16261232047E+03 0.22602783162E+03 0.29925174597E+03 0.37892599992E+03 0.46054848176E+03
 0.53874420018E+03 0.60771330814E+03 0.66184739745E+03 0.69643666141E+03 0.70833516275E+03
 0.63990250664E+03 0.59750885248E+03 0.53874420172E+03 0.46859043637E+03 0.39254697099E+03
 0.31598970129E+03 0.24365724573E+03 0.17930434356E+03 0.12550564981E+03 0.83568729051E+02
 0.53528894718E+02 0.34231364507E+02 0.23526835474E+02 0.18595038923E+02 0.16378316824E+02
 0.14816483271E+02 0.13640590332E+02 0.12761927194E+02 0.12097540454E+02 0.11585124129E+02
 0.11183623384E+02 0.10867533720E+02 0.10620405783E+02 0.10430144894E+02 0.10286677829E+02
 0.10181435231E+02 0.10107659867E+02 0.10060681588E+02 0.10037784079E+02 0.10037784049E+02
 0.10060681496E+02 0.10107659717E+02 0.10181435035E+02 0.10286677610E+02 0.10430144684E+02
 0.10620405615E+02 0.10867533614E+02 0.11183623341E+02 0.11585124130E+02 0.12097540472E+02
 0.12761927211E+02 0.13640590356E+02 0.14816483339E+02 0.16378316995E+02 0.18595039244E+02
 0.23526835961E+02 0.34231365116E+02 0.53528895351E+02 0.83568729572E+02 0.12550565008E+03
 0.17930434347E+03 0.24365724526E+03 0.31598970048E+03 0.39254696996E+03 0.46859043526E+03
 0.53874420067E+03 0.59750885163E+03 0.63990250610E+03 0.66212779521E+03 0.66212779540E+03
 0.56781685840E+03 0.52062093028E+03 0.46054848387E+03 0.39254697099E+03 0.32174459061E+03
 0.25290334936E+03 0.19000999521E+03 0.13601454925E+03 0.92689949018E+02 0.60583708796E+02
 0.39055762089E+02 0.26420292819E+02 0.20209797011E+02 0.17551926071E+02 0.15926937171E+02
 0.14701261778E+02 0.13794180485E+02 0.13120684233E+02 0.12612244858E+02 0.12221638208E+02
 0.11919024834E+02 0.11685554610E+02 0.11507995022E+02 0.11375614700E+02 0.11279151419E+02
 0.11210990151E+02 0.11165577350E+02 0.11139466131E+02 0.11130929787E+02 0.11139466037E+02
 0.11165577188E+02 0.11210989964E+02 0.11279151249E+02 0.11375614570E+02 0.11507994935E+02
 0.11685554552E+02 0.11919024785E+02 0.12221638157E+02 0.12612244803E+02 0.13120684182E+02
 0.13794180448E+02 0.14701261763E+02 0.15926937183E+02 0.17551926128E+02 0.20209797146E+02
 0.26420293085E+02 0.39055762541E+02 0.60583709464E+02 0.92689949883E+02 0.13601455021E+03
 0.19000999612E+03 0.25290335003E+03 0.32174459089E+03 0.39254697083E+03 0.46054848332E+03
 0.52062092953E+03 0.56781685770E+03 0.59798908304E+03 0.60837064223E+03 0.59798908346E+03
 0.48599342790E+03 0.43714573978E+03 0.37892600236E+03 0.31598970129E+03 0.25290334936E+03
 0.19369816935E+03 0.14155221201E+03 0.98594532172E+02 0.65809639956E+02 0.43031607978E+02
 0.29037196884E+02 0.21754432918E+02 0.18585766636E+02 0.16916822900E+02 0.15668670812E+02
 0.14752680121E+02 0.14085676990E+02 0.13595362739E+02 0.13229345991E+02 0.12953565764E+02
 0.12746552472E+02 0.12593728792E+02 0.12483629715E+02 0.12406315629E+02 0.12353322787E+02
 0.12318161176E+02 0.12296567479E+02 0.12286234772E+02 0.12286234729E+02 0.12296567368E+02
 0.12318161038E+02 0.12353322668E+02 0.12406315557E+02 0.12483629690E+02 0.12593728789E+02
 0.12746552458E+02 0.12953565717E+02 0.13229345911E+02 0.13595362641E+02 0.14085676893E+02
 0.14752680033E+02 0.15668670728E+02 0.16916822813E+02 0.18585766562E+02 0.21754432917E+02
 0.29037197052E+02 0.43031608424E+02 0.65809640743E+02 0.98594533286E+02 0.14155221331E+03
 0.19369817061E+03 0.25290335033E+03 0.31598970177E+03 0.37892600230E+03 0.43714573928E+03
 0.48599342721E+03 0.52126562755E+03 0.53976613762E+03 0.53976613784E+03 0.52126562813E+03
 0.40045064062E+03 0.35290765470E+03 0.29925174833E+03 0.24365724573E+03 0.19000999521E+03
 0.14155221201E+03 0.10063774678E+03 0.68589243896E+02 0.45648524481E+02 0.31024289793E+02
 0.23049679044E+02 0.19452323218E+02 0.17741625386E+02 0.16502824582E+02 0.15601254314E+02
 0.14958859692E+02 0.14502315068E+02 0.14175608829E+02 0.13941007804E+02 0.13774428655E+02
 0.13659791755E+02 0.13584780385E+02 0.13538733140E+02 0.13512302778E+02 0.13497972332E+02
 0.13490519124E+02 0.13486936099E+02 0.13485862152E+02 0.13486936053E+02 0.13490519052E+02
 0.13497972265E+02 0.13512302741E+02 0.13538733139E+02 0.13584780403E+02 0.13659791767E+02
 0.13774428635E+02 0.13941007744E+02 0.14175608737E+02 0.14502314958E+02 0.14958859576E+02
 0.15601254196E+02 0.16502824460E+02 0.17741625271E+02 0.19452323147E+02 0.23049679088E+02
 0.31024290029E+02 0.45648524982E+02 0.68589244655E+02 0.10063774772E+03 0.14155221295E+03
 0.19000999594E+03 0.24365724607E+03 0.29925174819E+03 0.35290765412E+03 0.40045063982E+03
 0.43786976618E+03 0.46181524046E+03 0.47005787825E+03 0.46181524093E+03 0.43786976694E+03
 0.31677559241E+03 0.27304194929E+03 0.22602783350E+03 0.17930434356E+03 0.13601454925E+03
 0.98594532172E+02 0.68589243896E+02 0.46561421981E+02 0.32096858936E+02 0.23915113342E+02
 0.20088944533E+02 0.18362018657E+02 0.17166379749E+02 0.16304887479E+02 0.15706853399E+02
 0.15300558553E+02 0.15028256949E+02 0.14849488977E+02 0.14737831149E+02 0.14675652853E+02
 0.14649664809E+02 0.14648392028E+02 0.14661523022E+02 0.14680384284E+02 0.14698595586E+02
 0.14712238885E+02 0.14719398867E+02 0.14719398859E+02 0.14712238865E+02 0.14698595560E+02
 0.14680384261E+02 0.14661523006E+02 0.14648392018E+02 0.14649664802E+02 0.14675652839E+02
 0.14737831121E+02 0.14849488926E+02 0.15028256878E+02 0.15300558465E+02 0.15706853303E+02
 0.16304887392E+02 0.17166379697E+02 0.18362018673E+02 0.20088944652E+02 0.23915113593E+02
 0.32096859308E+02 0.46561422435E+02 0.68589244331E+02 0.98594532470E+02 0.13601454928E+03
 0.17930434321E+03 0.22602783276E+03 0.27304194825E+03 0.31677559122E+03 0.35359701910E+03
 0.38023990865E+03 0.39422922116E+03 0.39422922144E+03 0.38023990943E+03 0.35359702020E+03
 0.23966289075E+03 0.20163120387E+03 0.16261232157E+03 0.12550564981E+03 0.92689949018E+02
 0.65809639956E+02 0.45648524481E+02 0.32096858936E+02 0.24219515943E+02 0.20428279513E+02
 0.18747288158E+02 0.17627877521E+02 0.16832481544E+02 0.16298888092E+02 0.15959202954E+02
 0.15755928430E+02 0.15647114174E+02 0.15604533568E+02 0.15609106343E+02 0.15646490876E+02
 0.15704285704E+02 0.15771098556E+02 0.15836938192E+02 0.15894026263E+02 0.15937242999E+02
 0.15963873417E+02 0.15972833685E+02 0.15963873410E+02 0.15937242979E+02 0.15894026224E+02
 0.15836938134E+02 0.15771098485E+02 0.15704285636E+02 0.15646490825E+02 0.15609106319E+02
 0.15604533561E+02 0.15647114166E+02 0.15755928403E+02 0.15959202909E+02 0.16298888052E+02
 0.16832481562E+02 0.17627877651E+02 0.18747288441E+02 0.20428279937E+02 0.24219516453E+02
 0.32096859399E+02 0.45648524761E+02 0.65809639898E+02 0.92689948526E+02 0.12550564888E+03
 0.16261232026E+03 0.20163120233E+03 0.23966288917E+03 0.27358081866E+03 0.30038531548E+03
 0.31757876774E+03 0.32350356575E+03 0.31757876831E+03 0.30038531655E+03 0.27358082008E+03
 0.17263686588E+03 0.14150794713E+03 0.11108546932E+03 0.83568729051E+02 0.60583708796E+02
 0.43031607978E+02 0.31024289793E+02 0.23915113342E+02 0.20428279513E+02 0.18877937227E+02
 0.17864585018E+02 0.17159530811E+02 0.16709204179E+02 0.16451189089E+02 0.16330098204E+02
 0.16303871193E+02 0.16343229169E+02 0.16427908316E+02 0.16542515011E+02 0.16673622545E+02
 0.16808627455E+02 0.16936043805E+02 0.17046431604E+02 0.17132708421E+02 0.17190636314E+02
 0.17219410386E+02 0.17219410375E+02 0.17190636274E+02 0.17132708342E+02 0.17046431484E+02
 0.16936043656E+02 0.16808627309E+02 0.16673622437E+02 0.16542514961E+02 0.16427908324E+02
 0.16343229209E+02 0.16303871224E+02 0.16330098201E+02 0.16451189071E+02 0.16709204202E+02
 0.17159530964E+02 0.17864585369E+02 0.18877937797E+02 0.20428280220E+02 0.23915114047E+02
 0.31024290280E+02 0.43031608075E+02 0.60583708389E+02 0.83568728124E+02 0.11108546801E+03
 0.14150794560E+03 0.17263686434E+03 0.20192725124E+03 0.22677601091E+03 0.24484129286E+03
 0.25435131554E+03 0.25435131576E+03 0.24484129350E+03 0.22677601195E+03 0.20192725260E+03
 0.11791437676E+03 0.94171670272E+02 0.72207865553E+02 0.53528894718E+02 0.39055762089E+02
 0.29037196884E+02 0.23049679044E+02 0.20088944533E+02 0.18747288158E+02 0.17864585018E+02
 0.17270347349E+02 0.16919228668E+02 0.16755382148E+02 0.16727118981E+02 0.16793643679E+02
 0.16925507375E+02 0.17101679345E+02 0.17305821300E+02 0.17523434954E+02 0.17740593553E+02
 0.17944066273E+02 0.18119988663E+02 0.18257643488E+02 0.18353818185E+02 0.18409824829E+02
 0.18428119804E+02 0.18409824770E+02 0.18353818065E+02 0.18257643311E+02 0.18119988447E+02
 0.17944066059E+02 0.17740593390E+02 0.17523434880E+02 0.17305821313E+02 0.17101679412E+02
 0.16925507439E+02 0.16793643692E+02 0.16727118928E+02 0.16755382090E+02 0.16919228699E+02
 0.17270347589E+02 0.17864585524E+02 0.18747288921E+02 0.20088945410E+02 0.23049679858E+02
 0.29037197414E+02 0.39055762193E+02 0.53528894384E+02 0.72207864846E+02 0.94171669389E+02
 0.11791437590E+03 0.14150931177E+03 0.16283440446E+03 0.17983609350E+03 0.19079985392E+03
 0.19458739169E+03 0.19079985404E+03 0.17983609377E+03 0.16283440494E+03 0.14150931247E+03
 0.76358618826E+02 0.59783168477E+02 0.45454682437E+02 0.34231364507E+02 0.26420292819E+02
 0.21754432918E+02 0.19452323218E+02 0.18362018657E+02 0.17627877521E+02 0.17159530811E+02
 0.16919228668E+02 0.16858320934E+02 0.16930051475E+02 0.17096128096E+02 0.17327847025E+02
 0.17603937607E+02 0.17907339894E+02 0.18222524820E+02 0.18534186057E+02 0.18824588397E+02
 0.19072781407E+02 0.19267497835E+02 0.19406967735E+02 0.19495078517E+02 0.19537294978E+02
 0.19537294929E+02 0.19495078376E+02 0.19406967517E+02 0.19267497577E+02 0.19072781157E+02
 0.18824588212E+02 0.18534185976E+02 0.18222524857E+02 0.17907340002E+02 0.17603937713E+02
 0.17327847046E+02 0.17096127997E+02 0.16930051273E+02 0.16858320738E+02 0.16919228606E+02
 0.17159531021E+02 0.17627878041E+02 0.18362019455E+02 0.19452324133E+02 0.21754433778E+02
 0.26420293480E+02 0.34231364877E+02 0.45454682607E+02 0.59783168560E+02 0.76358618979E+02
 0.93871734191E+02 0.11072618350E+03 0.12524742510E+03 0.13591051815E+03 0.14155533439E+03
 0.14155533423E+03 0.13591051773E+03 0.12524742456E+03 0.11072618301E+03 0.93871733869E+02
 0.47506289470E+02 0.37239137298E+02 0.29145987503E+02 0.23526835474E+02 0.20209797011E+02
 0.18585766636E+02 0.17741625386E+02 0.17166379749E+02 0.16832481544E+02 0.16709204179E+02
 0.16755382148E+02 0.16930051475E+02 0.17198430354E+02 0.17533410935E+02 0.17914060763E+02
 0.18322924329E+02 0.18743592302E+02 0.19158982092E+02 0.19543160348E+02 0.19870264081E+02
 0.20128073814E+02 0.20315838644E+02 0.20440026440E+02 0.20509609187E+02 0.20531880988E+02
 0.20509609066E+02 0.20440026222E+02 0.20315838372E+02 0.20128073552E+02 0.19870263896E+02
 0.19543160293E+02 0.19158982174E+02 0.18743592486E+02 0.18322924522E+02 0.17914060854E+02
 0.17533410837E+02 0.17198430057E+02 0.16930051040E+02 0.16755381730E+02 0.16709203929E+02
 0.16832481607E+02 0.17166380150E+02 0.17741626075E+02 0.18585767485E+02 0.20209797860E+02
 0.23526836286E+02 0.29145988243E+02 0.37239138080E+02 0.47506290409E+02 0.59213207326E+02
 0.71294036168E+02 0.82504043496E+02 0.91601469460E+02 0.97532679747E+02 0.99592407035E+02
 0.97532679118E+02 0.91601468359E+02 0.82504042157E+02 0.71294034842E+02 0.59213206167E+02
 0.29690312085E+02 0.24358660469E+02 0.20702746941E+02 0.18595038923E+02 0.17551926071E+02
 0.16916822900E+02 0.16502824582E+02 0.16304887479E+02 0.16298888092E+02 0.16451189089E+02
 0.16727118981E+02 0.17096128096E+02 0.17533410935E+02 0.18018935378E+02 0.18535245988E+02
 0.19065316198E+02 0.19589612273E+02 0.20073839246E+02 0.20487282365E+02 0.20815511711E+02
 0.21057851699E+02 0.21222837334E+02 0.21322936308E+02 0.21369618561E+02 0.21369618501E+02
 0.21322936135E+02 0.21222837094E+02 0.21057851451E+02 0.20815511538E+02 0.20487282327E+02
 0.20073839381E+02 0.19589612542E+02 0.19065316521E+02 0.18535246233E+02 0.18018935415E+02
 0.17533410682E+02 0.17096127576E+02 0.16727118291E+02 0.16451188418E+02 0.16298887609E+02
 0.16304887320E+02 0.16502824779E+02 0.16916823379E+02 0.17551926760E+02 0.18595039667E+02
 0.20702747753E+02 0.24358661372E+02 0.29690313147E+02 0.36452479395E+02 0.44071393169E+02
 0.51741205311E+02 0.58557073147E+02 0.63664116831E+02 0.66398678535E+02 0.66398678173E+02
 0.63664115816E+02 0.58557071696E+02 0.51741203697E+02 0.44071391638E+02 0.36452478088E+02
 0.20292568729E+02 0.18205622804E+02 0.17031239947E+02 0.16378316824E+02 0.15926937171E+02
 0.15668670812E+02 0.15601254314E+02 0.15706853399E+02 0.15959202954E+02 0.16330098204E+02
 0.16793643679E+02 0.17327847025E+02 0.17914060763E+02 0.18535245988E+02 0.19174112949E+02
 0.19809120733E+02 0.20398987296E+02 0.20906935667E+02 0.21314651404E+02 0.21620063008E+02
 0.21832699916E+02 0.21967957750E+02 0.22041484494E+02 0.22064621962E+02 0.22041484398E+02
 0.21967957582E+02 0.21832699725E+02 0.21620062861E+02 0.21314651374E+02 0.20906935807E+02
 0.20398987614E+02 0.19809121164E+02 0.19174113374E+02 0.18535246260E+02 0.17914060743E+02
 0.17327846652E+02 0.16793642993E+02 0.16330097334E+02 0.15959202091E+02 0.15706852728E+02
 0.15601253941E+02 0.15668670787E+02 0.15926937386E+02 0.16378317235E+02 0.17031240436E+02
 0.18205623325E+02 0.20292569361E+02 0.23412184558E+02 0.27401918873E+02 0.31860394447E+02
 0.36231176668E+02 0.39911310478E+02 0.42365674840E+02 0.43227273857E+02 0.42365674351E+02
 0.39911309616E+02 0.36231175624E+02 0.31860393401E+02 0.27401917951E+02 0.23412183792E+02
 0.16133646831E+02 0.15529422309E+02 0.15097921728E+02 0.14816483271E+02 0.14701261778E+02
 0.14752680121E+02 0.14958859692E+02 0.15300558553E+02 0.15755928430E+02 0.16303871193E+02
 0.16925507375E+02 0.17603937607E+02 0.18322924329E+02 0.19065316198E+02 0.19809120733E+02
 0.20508468185E+02 0.21119099597E+02 0.21616875134E+02 0.21996388716E+02 0.22266526560E+02
 0.22444458052E+02 0.22549427789E+02 0.22597430365E+02 0.22597430338E+02 0.22549427715E+02
 0.22444457952E+02 0.22266526475E+02 0.21996388701E+02 0.21616875248E+02 0.21119099878E+02
 0.20508468626E+02 0.19809121256E+02 0.19065316677E+02 0.18322924619E+02 0.17603937580E+02
 0.16925506981E+02 0.16303870479E+02 0.15755927525E+02 0.15300557635E+02 0.14958858936E+02
 0.14752679611E+02 0.14701261558E+02 0.14816483249E+02 0.15097921792E+02 0.15529422410E+02
 0.16133646858E+02 0.17144586675E+02 0.18696670531E+02 0.20718698531E+02 0.22971972642E+02
 0.25117467902E+02 0.26798230170E+02 0.27720938801E+02 0.27720938771E+02 0.26798230100E+02
 0.25117467826E+02 0.22971972593E+02 0.20718698528E+02 0.18696670565E+02 0.17144586716E+02
 0.14021458893E+02 0.13763179401E+02 0.13631307843E+02 0.13640590332E+02 0.13794180485E+02
 0.14085676990E+02 0.14502315068E+02 0.15028256949E+02 0.15647114174E+02 0.16343229169E+02
 0.17101679345E+02 0.17907339894E+02 0.18743592302E+02 0.19589612273E+02 0.20398987296E+02
 0.21119099597E+02 0.21718018805E+02 0.22184748554E+02 0.22525385559E+02 0.22757127242E+02
 0.22901630506E+02 0.22978985938E+02 0.23003119831E+02 0.22978985939E+02 0.22901630508E+02
 0.22757127251E+02 0.22525385597E+02 0.22184748653E+02 0.21718019006E+02 0.21119099929E+02
 0.20398987754E+02 0.19589612789E+02 0.18743592780E+02 0.17907340210E+02 0.17101679391E+02
 0.16343228897E+02 0.15647113611E+02 0.15028256195E+02 0.14502314262E+02 0.14085676285E+02
 0.13794179954E+02 0.13640590003E+02 0.13631307669E+02 0.13763179226E+02 0.14021458609E+02
 0.14379791619E+02 0.14829835207E+02 0.15462492423E+02 0.16290127515E+02 0.17210512357E+02
 0.18055998016E+02 0.18651053191E+02 0.18865367197E+02 0.18651053586E+02 0.18055998741E+02
 0.17210513295E+02 0.16290128524E+02 0.15462493345E+02 0.14829835916E+02 0.14379792077E+02
 0.12422507792E+02 0.12414845695E+02 0.12526110362E+02 0.12761927194E+02 0.13120684233E+02
 0.13595362739E+02 0.14175608829E+02 0.14849488977E+02 0.15604533568E+02 0.16427908316E+02
 0.17305821300E+02 0.18222524820E+02 0.19158982092E+02 0.20073839246E+02 0.20906935667E+02
 0.21616875134E+02 0.22184748554E+02 0.22611356382E+02 0.22911637597E+02 0.23107867704E+02
 0.23223064587E+02 0.23275613580E+02 0.23275613611E+02 0.23223064671E+02 0.23107867823E+02
 0.22911637729E+02 0.22611356520E+02 0.22184748703E+02 0.21616875320E+02 0.20906935921E+02
 0.20073839588E+02 0.19158982497E+02 0.18222525244E+02 0.17305821656E+02 0.16427908515E+02
 0.15604533546E+02 0.14849488712E+02 0.14175608374E+02 0.13595362179E+02 0.13120683705E+02
 0.12761926784E+02 0.12526110094E+02 0.12414845540E+02 0.12422507625E+02 0.12535233207E+02
 0.12731189091E+02 0.12982217175E+02 0.13256874375E+02 0.13543104505E+02 0.13832586519E+02
 0.14077110375E+02 0.14218322167E+02 0.14218322519E+02 0.14077111348E+02 0.13832587907E+02
 0.13543106022E+02 0.13256875748E+02 0.12982218240E+02 0.12731189798E+02 0.12535233582E+02
 0.11205081466E+02 0.11394031613E+02 0.11690752674E+02 0.12097540454E+02 0.12612244858E+02
 0.13229345991E+02 0.13941007804E+02 0.14737831149E+02 0.15609106343E+02 0.16542515011E+02
 0.17523434954E+02 0.18534186057E+02 0.19543160348E+02 0.20487282365E+02 0.21314651404E+02
 0.21996388716E+02 0.22525385559E+02 0.22911637597E+02 0.23175679294E+02 0.23341666388E+02
 0.23431324386E+02 0.23459466906E+02 0.23431324502E+02 0.23341666594E+02 0.23175679543E+02
 0.22911637833E+02 0.22525385740E+02 0.21996388822E+02 0.21314651454E+02 0.20487282410E+02
 0.19543160454E+02 0.18534186269E+02 0.17523435291E+02 0.16542515422E+02 0.15609106743E+02
 0.14737831436E+02 0.13941007896E+02 0.13229345887E+02 0.12612244605E+02 0.12097540180E+02
 0.11690752506E+02 0.11394031597E+02 0.11205081566E+02 0.11116359093E+02 0.11114811375E+02
 0.11182330332E+02 0.11296958596E+02 0.11434721470E+02 0.11571830597E+02 0.11686948983E+02
 0.11763226953E+02 0.11789888255E+02 0.11763227633E+02 0.11686950164E+02 0.11571831983E+02
 0.11434722747E+02 0.11296959529E+02 0.11182330808E+02 0.11114811467E+02 0.11116358994E+02
 0.10275421736E+02 0.10612189701E+02 0.11048172187E+02 0.11585124129E+02 0.12221638208E+02
 0.12953565764E+02 0.13774428655E+02 0.14675652853E+02 0.15646490876E+02 0.16673622545E+02
 0.17740593553E+02 0.18824588397E+02 0.19870264081E+02 0.20815511711E+02 0.21620063008E+02
 0.22266526560E+02 0.22757127242E+02 0.23107867704E+02 0.23341666388E+02 0.23481842057E+02
 0.23546874487E+02 0.23546874574E+02 0.23481842298E+02 0.23341666731E+02 0.23107868069E+02
 0.22757127538E+02 0.22266526712E+02 0.21620062980E+02 0.20815511532E+02 0.19870263840E+02
 0.18824588215E+02 0.17740593545E+02 0.16673622779E+02 0.15646491323E+02 0.14675653415E+02
 0.13774429190E+02 0.12953566143E+02 0.12221638391E+02 0.11585124158E+02 0.11048172180E+02
 0.10612189816E+02 0.10275422060E+02 0.10032661154E+02 0.98751775811E+01 0.97909290760E+01
 0.97650878630E+01 0.97809098519E+01 0.98209347133E+01 0.98684463292E+01 0.99090498614E+01
 0.99321586524E+01 0.99321588840E+01 0.99090504747E+01 0.98684470987E+01 0.98209353683E+01
 0.97809101808E+01 0.97650877946E+01 0.97909286928E+01 0.98751770498E+01 0.10032660660E+02
 0.95531827128E+01 0.10001229344E+02 0.10544058990E+02 0.11183623384E+02 0.11919024834E+02
 0.12746552472E+02 0.13659791755E+02 0.14649664809E+02 0.15704285704E+02 0.16808627455E+02
 0.17944066273E+02 0.19072781407E+02 0.20128073814E+02 0.21057851699E+02 0.21832699916E+02
 0.22444458052E+02 0.22901630506E+02 0.23223064587E+02 0.23431324386E+02 0.23546874487E+02
 0.23583737108E+02 0.23546874701E+02 0.23431324770E+02 0.23223065058E+02 0.22901630952E+02
 0.22444458356E+02 0.21832699983E+02 0.21057851497E+02 0.20128073395E+02 0.19072780900E+02
 0.17944065841E+02 0.16808627257E+02 0.15704285822E+02 0.14649665222E+02 0.13659792346E+02
 0.12746553086E+02 0.11919025321E+02 0.11183623693E+02 0.10544059172E+02 0.10001229517E+02
 0.95531830213E+01 0.91952430377E+01 0.89202948634E+01 0.87191783635E+01 0.85811299570E+01
 0.84942664485E+01 0.84461602413E+01 0.84245743154E+01 0.84183810178E+01 0.84185941541E+01
 0.84193459602E+01 0.84185942310E+01 0.84183810798E+01 0.84245742307E+01 0.84461598984E+01
 0.84942658152E+01 0.85811291116E+01 0.87191774577E+01 0.89202940727E+01 0.91952424850E+01
 0.89810619572E+01 0.95156816748E+01 0.10143874542E+02 0.10867533720E+02 0.11685554610E+02
 0.12593728792E+02 0.13584780385E+02 0.14648392028E+02 0.15771098556E+02 0.16936043805E+02
 0.18119988663E+02 0.19267497835E+02 0.20315838644E+02 0.21222837334E+02 0.21967957750E+02
 0.22549427789E+02 0.22978985938E+02 0.23275613580E+02 0.23459466906E+02 0.23546874574E+02
 0.23546874701E+02 0.23459467262E+02 0.23275614097E+02 0.22978986505E+02 0.22549428277E+02
 0.21967958029E+02 0.21222837320E+02 0.20315838319E+02 0.19267497273E+02 0.18119988003E+02
 0.16936043224E+02 0.15771098207E+02 0.14648391987E+02 0.13584780639E+02 0.12593729227E+02
 0.11685555090E+02 0.10867534113E+02 0.10143874789E+02 0.95156818216E+01 0.89810621124E+01
 0.85354645393E+01 0.81722341930E+01 0.78832670701E+01 0.76596229141E+01 0.74920037391E+01
 0.73711027942E+01 0.72879166435E+01 0.72341381024E+01 0.72026909299E+01 0.71883582170E+01
 0.71883580996E+01 0.72026905696E+01 0.72341374954E+01 0.72879158044E+01 0.73711017900E+01
 0.74920026819E+01 0.76596219372E+01 0.78832662993E+01 0.81722336825E+01 0.85354642547E+01
 0.85223066433E+01 0.91272361647E+01 0.98261674194E+01 0.10620405783E+02 0.11507995022E+02
 0.12483629715E+02 0.13538733140E+02 0.14661523022E+02 0.15836938192E+02 0.17046431604E+02
 0.18257643488E+02 0.19406967735E+02 0.20440026440E+02 0.21322936308E+02 0.22041484494E+02
 0.22597430365E+02 0.23003119831E+02 0.23275613611E+02 0.23431324502E+02 0.23481842298E+02
 0.23431324770E+02 0.23275614097E+02 0.23003120444E+02 0.22597430985E+02 0.22041484993E+02
 0.21322936576E+02 0.20440026412E+02 0.19406967414E+02 0.18257642942E+02 0.17046430947E+02
 0.15836937571E+02 0.14661522552E+02 0.13538732890E+02 0.12483629689E+02 0.11507995148E+02
 0.10620405968E+02 0.98261675674E+01 0.91272362093E+01 0.85223065856E+01 0.80071894359E+01
 0.75754815989E+01 0.72194059064E+01 0.69306319195E+01 0.67009102137E+01 0.65224490558E+01
 0.63880841075E+01 0.62913762757E+01 0.62267755289E+01 0.61899101370E+01 0.61779493777E+01
 0.61899097253E+01 0.62267747789E+01 0.62913753148E+01 0.63880830932E+01 0.65224481412E+01
 0.67009095156E+01 0.69306314945E+01 0.72194057322E+01 0.75754816046E+01 0.80071895196E+01
 0.81540532000E+01 0.88179284182E+01 0.95765280851E+01 0.10430144894E+02 0.11375614700E+02
 0.12406315629E+02 0.13512302778E+02 0.14680384284E+02 0.15894026263E+02 0.17132708421E+02
 0.18353818185E+02 0.19495078517E+02 0.20509609187E+02 0.21369618561E+02 0.22064621962E+02
 0.22597430338E+02 0.22978985939E+02 0.23223064671E+02 0.23341666594E+02 0.23341666731E+02
 0.23223065058E+02 0.22978986505E+02 0.22597430985E+02 0.22064622582E+02 0.21369619056E+02
 0.20509609483E+02 0.19495078577E+02 0.18353818008E+02 0.17132708035E+02 0.15894025733E+02
 0.14680383691E+02 0.13512302209E+02 0.12406315156E+02 0.11375614370E+02 0.10430144698E+02
 0.95765279690E+01 0.88179283088E+01 0.81540530146E+01 0.75814552434E+01 0.70941872483E+01
 0.66847086191E+01 0.63448520660E+01 0.60666334857E+01 0.58427659823E+01 0.56668636713E+01
 0.55334406327E+01 0.54378663469E+01 0.53764066382E+01 0.53463830170E+01 0.53463828050E+01
 0.53764060646E+01 0.54378655728E+01 0.55334398741E+01 0.56668631167E+01 0.58427657460E+01
 0.60666335782E+01 0.63448524031E+01 0.66847090711E+01 0.70941876798E+01 0.75814555593E+01
 0.78611264863E+01 0.85749869748E+01 0.93838076829E+01 0.10286677829E+02 0.11279151419E+02
 0.12353322787E+02 0.13497972332E+02 0.14698595586E+02 0.15937242999E+02 0.17190636314E+02
 0.18409824829E+02 0.19537294978E+02 0.20531880988E+02 0.21369618501E+02 0.22041484398E+02
 0.22549427715E+02 0.22901630508E+02 0.23107867823E+02 0.23175679543E+02 0.23107868069E+02
 0.22901630952E+02 0.22549428277E+02 0.22041484993E+02 0.21369619056E+02 0.20531881457E+02
 0.19537295332E+02 0.18409825048E+02 0.17190636364E+02 0.15937242857E+02 0.14698595245E+02
 0.13497971814E+02 0.12353322171E+02 0.11279150798E+02 0.10286677308E+02 0.93838073145E+01
 0.85749867308E+01 0.78611262746E+01 0.72397918746E+01 0.67057614514E+01 0.62519012257E+01
 0.58701867692E+01 0.55526408421E+01 0.52919996882E+01 0.50820306820E+01 0.49175562743E+01
 0.47943324953E+01 0.47089433844E+01 0.46588064606E+01 0.46422825050E+01 0.46588061701E+01
 0.47089429350E+01 0.47943320957E+01 0.49175561238E+01 0.50820308969E+01 0.52920002541E+01
 0.55526416278E+01 0.58701875930E+01 0.62519019160E+01 0.67057619304E+01 0.72397921697E+01
 0.76320461266E+01 0.83880850412E+01 0.92385842982E+01 0.10181435231E+02 0.11210990151E+02
 0.12318161176E+02 0.13490519124E+02 0.14712238885E+02 0.15963873417E+02 0.17219410386E+02
 0.18428119804E+02 0.19537294929E+02 0.20509609066E+02 0.21322936135E+02 0.21967957582E+02
 0.22444457952E+02 0.22757127251E+02 0.22911637729E+02 0.22911637833E+02 0.22757127538E+02
 0.22444458356E+02 0.21967958029E+02 0.21322936576E+02 0.20509609483E+02 0.19537295332E+02
 0.18428120203E+02 0.17219410757E+02 0.15963873693E+02 0.14712238985E+02 0.13490518981E+02
 0.12318160789E+02 0.11210989601E+02 0.10181434649E+02 0.92385838229E+01 0.83880847605E+01
 0.76320460206E+01 0.69691385144E+01 0.63950366303E+01 0.59032054548E+01 0.54859014861E+01
 0.51351712241E+01 0.48436365437E+01 0.46049410375E+01 0.44138587353E+01 0.42661801974E+01
 0.41585411796E+01 0.40883275179E+01 0.40537012333E+01 0.40537011574E+01 0.40883273506E+01
 0.41585410783E+01 0.42661803318E+01 0.44138592091E+01 0.46049418280E+01 0.48436375098E+01
 0.51351721622E+01 0.54859022120E+01 0.59032058890E+01 0.63950368110E+01 0.69691385737E+01
 0.74572801246E+01 0.82485191770E+01 0.91330528266E+01 0.10107659867E+02 0.11165577350E+02
 0.12296567479E+02 0.13486936099E+02 0.14719398867E+02 0.15972833685E+02 0.17219410375E+02
 0.18409824770E+02 0.19495078376E+02 0.20440026222E+02 0.21222837094E+02 0.21832699725E+02
 0.22266526475E+02 0.22525385597E+02 0.22611356520E+02 0.22525385740E+02 0.22266526712E+02
 0.21832699983E+02 0.21222837320E+02 0.20440026412E+02 0.19495078577E+02 0.18409825048E+02
 0.17219410757E+02 0.15972834141E+02 0.14719399301E+02 0.13486936383E+02 0.12296567527E+02
 0.11165577149E+02 0.10107659517E+02 0.91330524866E+01 0.82485189939E+01 0.74572801739E+01
 0.67590795921E+01 0.61505342867E+01 0.56258218921E+01 0.51776186790E+01 0.47981029138E+01
 0.44798123402E+01 0.42162002474E+01 0.40018455358E+01 0.38323910777E+01 0.37043604530E+01
 0.36150046207E+01 0.35622633210E+01 0.35448326968E+01 0.35622633155E+01 0.36150046886E+01
 0.37043607055E+01 0.38323915901E+01 0.40018462847E+01 0.42162011055E+01 0.44798131159E+01
 0.47981034271E+01 0.51776188473E+01 0.56258217519E+01 0.61505339932E+01 0.67590793458E+01
 0.73289666828E+01 0.81493551260E+01 0.90613525747E+01 0.10060681588E+02 0.11139466131E+02
 0.12286234772E+02 0.13485862152E+02 0.14719398859E+02 0.15963873410E+02 0.17190636274E+02