   2   2   1   0
  0.2258839E+02  0.3997699E-09  0.3997699E-09  0.3997699E-09  0.5000000E-15
  1.000000000000000E-004
  CAR 
 Name                                    
     19.52997226    -12.54372025  301      3.86731908      1.00000000
    -12.544  0.0000E+00  0.0000E+00
    -12.437  0.0000E+00  0.0000E+00
    -12.330  0.0000E+00  0.0000E+00
    -12.223  0.0000E+00  0.0000E+00
    -12.116  0.0000E+00  0.0000E+00
    -12.009  0.0000E+00  0.0000E+00
    -11.902  0.0000E+00  0.0000E+00
    -11.795  0.0000E+00  0.0000E+00
    -11.688  0.0000E+00  0.0000E+00
    -11.582  0.0000E+00  0.0000E+00
    -11.475  0.0000E+00  0.0000E+00
    -11.368  0.0000E+00  0.0000E+00
    -11.261  0.0000E+00  0.0000E+00
    -11.154  0.0000E+00  0.0000E+00
    -11.047  0.1316E+02  0.1407E+01
    -10.940  0.2594E+02  0.4635E+01
    -10.833  0.3715E+02  0.1000E+02
    -10.726  0.0000E+00  0.1000E+02
    -10.619  0.0000E+00  0.1000E+02
    -10.512  0.0000E+00  0.1000E+02
    -10.405  0.0000E+00  0.1000E+02
    -10.299  0.0000E+00  0.1000E+02
    -10.192  0.0000E+00  0.1000E+02
    -10.085  0.0000E+00  0.1000E+02
     -9.978  0.0000E+00  0.1000E+02
     -9.871  0.0000E+00  0.1000E+02
     -9.764  0.0000E+00  0.1000E+02
     -9.657  0.0000E+00  0.1000E+02
     -9.550  0.0000E+00  0.1000E+02
     -9.443  0.0000E+00  0.1000E+02
     -9.336  0.0000E+00  0.1000E+02
     -9.229  0.0000E+00  0.1000E+02
     -9.123  0.0000E+00  0.1000E+02
     -9.016  0.0000E+00  0.1000E+02
     -8.909  0.8661E-01  0.1001E+02
     -8.802  0.0000E+00  0.1001E+02
     -8.695  0.0000E+00  0.1001E+02
     -8.588  0.6928E+00  0.1008E+02
     -8.481  0.5196E+00  0.1014E+02
     -8.374  0.0000E+00  0.1014E+02
     -8.267  0.0000E+00  0.1014E+02
     -8.160  0.6072E-09  0.1014E+02
     -8.053  0.1039E+01  0.1025E+02
     -7.946  0.0000E+00  0.1025E+02
     -7.840  0.5250E+00  0.1031E+02
     -7.733  0.6928E+00  0.1055E+02
     -7.626  0.0000E+00  0.1055E+02
     -7.519  0.0000E+00  0.1055E+02
     -7.412  0.2092E-08  0.1055E+02
     -7.305  0.5196E+00  0.1060E+02
     -7.198  0.2079E+01  0.1082E+02
     -7.091  0.2425E+01  0.1108E+02
     -6.984  0.2079E+01  0.1131E+02
     -6.877  0.0000E+00  0.1131E+02
     -6.770  0.0000E+00  0.1131E+02
     -6.664  0.1884E+01  0.1151E+02
     -6.557  0.3118E+01  0.1186E+02
     -6.450  0.1211E-06  0.1186E+02
     -6.343  0.1299E+01  0.1200E+02
     -6.236  0.0000E+00  0.1200E+02
     -6.129  0.0000E+00  0.1200E+02
     -6.022  0.0000E+00  0.1200E+02
     -5.915  0.0000E+00  0.1200E+02
     -5.808  0.0000E+00  0.1200E+02
     -5.701  0.0000E+00  0.1200E+02
     -5.594  0.0000E+00  0.1200E+02
     -5.488  0.0000E+00  0.1200E+02
     -5.381  0.0000E+00  0.1200E+02
     -5.274  0.0000E+00  0.1200E+02
     -5.167  0.0000E+00  0.1200E+02
     -5.060  0.0000E+00  0.1200E+02
     -4.953  0.0000E+00  0.1200E+02
     -4.846  0.0000E+00  0.1200E+02
     -4.739  0.0000E+00  0.1200E+02
     -4.632  0.0000E+00  0.1200E+02
     -4.525  0.0000E+00  0.1200E+02
     -4.418  0.0000E+00  0.1200E+02
     -4.311  0.0000E+00  0.1200E+02
     -4.205  0.0000E+00  0.1200E+02
     -4.098  0.0000E+00  0.1200E+02
     -3.991  0.0000E+00  0.1200E+02
     -3.884  0.0000E+00  0.1200E+02
     -3.777  0.0000E+00  0.1200E+02
     -3.670  0.0000E+00  0.1200E+02
     -3.563  0.0000E+00  0.1200E+02
     -3.456  0.0000E+00  0.1200E+02
     -3.349  0.0000E+00  0.1200E+02
     -3.242  0.0000E+00  0.1200E+02
     -3.135  0.0000E+00  0.1200E+02
     -3.029  0.2533E+00  0.1203E+02
     -2.922  0.9237E-02  0.1203E+02
     -2.815  0.3464E+00  0.1218E+02
     -2.708  0.1820E+01  0.1237E+02
     -2.601  0.5174E+01  0.1295E+02
     -2.494  0.0000E+00  0.1295E+02
     -2.387  0.0000E+00  0.1295E+02
     -2.280  0.0000E+00  0.1295E+02
     -2.173  0.2077E+01  0.1318E+02
     -2.066  0.3425E-10  0.1318E+02
     -1.959  0.2079E+01  0.1340E+02
     -1.852  0.0000E+00  0.1340E+02
     -1.746  0.0000E+00  0.1340E+02
     -1.639  0.1671E-06  0.1340E+02
     -1.532  0.1212E+01  0.1353E+02
     -1.425  0.0000E+00  0.1353E+02
     -1.318  0.0000E+00  0.1353E+02
     -1.211  0.0000E+00  0.1353E+02
     -1.104  0.0000E+00  0.1353E+02
     -0.997  0.3288E-08  0.1353E+02
     -0.890  0.2079E+01  0.1375E+02
     -0.783  0.0000E+00  0.1375E+02
     -0.676  0.0000E+00  0.1375E+02
     -0.570  0.0000E+00  0.1375E+02
     -0.463  0.0000E+00  0.1375E+02
     -0.356  0.6442E-03  0.1375E+02
     -0.249  0.4873E-09  0.1386E+02
     -0.142  0.1039E+01  0.1397E+02
     -0.035  0.0000E+00  0.1397E+02
      0.072  0.7670E-07  0.1397E+02
      0.179  0.2079E+01  0.1419E+02
      0.286  0.0000E+00  0.1419E+02
      0.393  0.9708E-07  0.1419E+02
      0.500  0.1864E+01  0.1439E+02
      0.606  0.3118E+01  0.1486E+02
      0.713  0.0000E+00  0.1486E+02
      0.820  0.0000E+00  0.1486E+02
      0.927  0.2907E-01  0.1486E+02
      1.034  0.1043E-07  0.1508E+02
      1.141  0.2510E+01  0.1535E+02
      1.248  0.0000E+00  0.1549E+02
      1.355  0.2078E+01  0.1571E+02
      1.462  0.2079E+01  0.1594E+02
      1.569  0.6045E+00  0.1600E+02
      1.676  0.2341E-01  0.1605E+02
      1.783  0.2079E+01  0.1638E+02
      1.889  0.1039E+01  0.1649E+02
      1.996  0.2079E+01  0.1671E+02
      2.103  0.1385E-14  0.1671E+02
      2.210  0.2088E+01  0.1694E+02
      2.317  0.0000E+00  0.1716E+02
      2.424  0.0000E+00  0.1716E+02
      2.531  0.0000E+00  0.1716E+02
      2.638  0.2079E+01  0.1738E+02
      2.745  0.3098E-09  0.1745E+02
      2.852  0.1039E+01  0.1756E+02
      2.959  0.1386E+01  0.1771E+02
      3.065  0.0000E+00  0.1771E+02
      3.172  0.0000E+00  0.1771E+02
      3.279  0.3368E+00  0.1775E+02
      3.386  0.1440E-08  0.1782E+02
      3.493  0.1386E+01  0.1797E+02
      3.600  0.0000E+00  0.1797E+02
      3.707  0.0000E+00  0.1797E+02
      3.814  0.1361E+00  0.1799E+02
      3.921  0.0000E+00  0.1800E+02
      4.028  0.0000E+00  0.1800E+02
      4.135  0.0000E+00  0.1800E+02
      4.242  0.1327E-04  0.1800E+02
      4.348  0.0000E+00  0.1801E+02
      4.455  0.0000E+00  0.1801E+02
      4.562  0.0000E+00  0.1801E+02
      4.669  0.0000E+00  0.1801E+02
      4.776  0.3464E+00  0.1805E+02
      4.883  0.0000E+00  0.1805E+02
      4.990  0.6928E+00  0.1812E+02
      5.097  0.0000E+00  0.1812E+02
      5.204  0.2598E+00  0.1815E+02
      5.311  0.5192E+00  0.1820E+02
      5.418  0.9526E+00  0.1831E+02
      5.524  0.4693E-08  0.1831E+02
      5.631  0.2079E+01  0.1853E+02
      5.738  0.0000E+00  0.1853E+02
      5.845  0.0000E+00  0.1853E+02
      5.952  0.7493E-01  0.1854E+02
      6.059  0.8092E-01  0.1865E+02
      6.166  0.2769E-14  0.1886E+02
      6.273  0.4491E+01  0.1934E+02
      6.380  0.1552E+01  0.1953E+02
      6.487  0.0000E+00  0.1953E+02
      6.594  0.0000E+00  0.1953E+02
      6.700  0.0000E+00  0.1953E+02
      6.807  0.2885E-14  0.1953E+02
      6.914  0.5196E+00  0.1958E+02
      7.021  0.1039E+01  0.1969E+02
      7.128  0.2079E+01  0.1992E+02
      7.235  0.3118E+01  0.2025E+02
      7.342  0.4866E-03  0.2025E+02
      7.449  0.1115E-11  0.2047E+02
      7.556  0.2334E+01  0.2072E+02
      7.663  0.2079E+01  0.2094E+02
      7.770  0.0000E+00  0.2094E+02
      7.877  0.0000E+00  0.2094E+02
      7.983  0.0000E+00  0.2094E+02
      8.090  0.3407E+01  0.2131E+02
      8.197  0.2324E+00  0.2134E+02
      8.304  0.1039E+01  0.2165E+02
      8.411  0.1741E+01  0.2183E+02
      8.518  0.3464E+01  0.2228E+02
      8.625  0.0000E+00  0.2228E+02
      8.732  0.0000E+00  0.2228E+02
      8.839  0.2078E+01  0.2250E+02
      8.946  0.0000E+00  0.2250E+02
      9.053  0.4960E+00  0.2255E+02
      9.159  0.2079E+01  0.2283E+02
      9.266  0.0000E+00  0.2283E+02
      9.373  0.1139E+01  0.2296E+02
      9.480  0.1154E-15  0.2317E+02
      9.587  0.2079E+01  0.2339E+02
      9.694  0.1039E+01  0.2350E+02
      9.801  0.4866E-09  0.2350E+02
      9.908  0.2079E+01  0.2372E+02
     10.015  0.2079E+01  0.2394E+02
     10.122  0.0000E+00  0.2394E+02
     10.229  0.0000E+00  0.2394E+02
     10.336  0.0000E+00  0.2394E+02
     10.442  0.0000E+00  0.2394E+02
     10.549  0.0000E+00  0.2394E+02
     10.656  0.0000E+00  0.2394E+02
     10.763  0.2731E+00  0.2397E+02
     10.870  0.2341E+01  0.2442E+02
     10.977  0.1724E+01  0.2468E+02
     11.084  0.6801E-11  0.2469E+02
     11.191  0.3569E+01  0.2507E+02
     11.298  0.1039E+01  0.2519E+02
     11.405  0.2414E+01  0.2545E+02
     11.512  0.1039E+01  0.2556E+02
     11.618  0.2077E+01  0.2579E+02
     11.725  0.3322E-06  0.2579E+02
     11.832  0.2079E+01  0.2601E+02
     11.939  0.0000E+00  0.2601E+02
     12.046  0.6310E-04  0.2601E+02
     12.153  0.2078E+01  0.2623E+02
     12.260  0.0000E+00  0.2623E+02
     12.367  0.9720E+00  0.2634E+02
     12.474  0.6928E+00  0.2658E+02
     12.581  0.2372E+01  0.2684E+02
     12.688  0.0000E+00  0.2688E+02
     12.794  0.1138E+01  0.2700E+02
     12.901  0.0000E+00  0.2725E+02
     13.008  0.0000E+00  0.2725E+02
     13.115  0.1337E-01  0.2725E+02
     13.222  0.0000E+00  0.2747E+02
     13.329  0.5195E+00  0.2753E+02
     13.436  0.2418E+01  0.2779E+02
     13.543  0.8833E+00  0.2788E+02
     13.650  0.1039E+01  0.2812E+02
     13.757  0.2079E+01  0.2834E+02
     13.864  0.1317E-14  0.2834E+02
     13.971  0.6928E+00  0.2842E+02
     14.077  0.9490E-02  0.2842E+02
     14.184  0.0000E+00  0.2845E+02
     14.291  0.1230E-02  0.2845E+02
     14.398  0.2598E+01  0.2884E+02
     14.505  0.2079E+01  0.2906E+02
     14.612  0.0000E+00  0.2906E+02
     14.719  0.2338E+01  0.2931E+02
     14.826  0.1040E+01  0.2943E+02
     14.933  0.0000E+00  0.2965E+02
     15.040  0.0000E+00  0.2965E+02
     15.147  0.0000E+00  0.2965E+02
     15.253  0.8078E+00  0.2973E+02
     15.360  0.0000E+00  0.2987E+02
     15.467  0.1328E+01  0.3001E+02
     15.574  0.2182E-11  0.3009E+02
     15.681  0.2945E+01  0.3041E+02
     15.788  0.0000E+00  0.3044E+02
     15.895  0.7180E+00  0.3052E+02
     16.002  0.1037E+01  0.3078E+02
     16.109  0.2079E+01  0.3100E+02
     16.216  0.0000E+00  0.3100E+02
     16.323  0.0000E+00  0.3100E+02
     16.430  0.0000E+00  0.3100E+02
     16.536  0.2079E+01  0.3122E+02
     16.643  0.2078E+01  0.3144E+02
     16.750  0.4223E+00  0.3149E+02
     16.857  0.2061E+01  0.3172E+02
     16.964  0.0000E+00  0.3172E+02
     17.071  0.1001E+01  0.3183E+02
     17.178  0.2598E+00  0.3189E+02
     17.285  0.0000E+00  0.3189E+02
     17.392  0.0000E+00  0.3189E+02
     17.499  0.0000E+00  0.3189E+02
     17.606  0.0000E+00  0.3189E+02
     17.712  0.0000E+00  0.3189E+02
     17.819  0.0000E+00  0.3189E+02
     17.926  0.2581E-04  0.3189E+02
     18.033  0.1039E+01  0.3200E+02
     18.140  0.0000E+00  0.3200E+02
     18.247  0.0000E+00  0.3200E+02
     18.354  0.0000E+00  0.3200E+02
     18.461  0.0000E+00  0.3200E+02
     18.568  0.0000E+00  0.3200E+02
     18.675  0.0000E+00  0.3200E+02
     18.782  0.0000E+00  0.3200E+02
     18.888  0.0000E+00  0.3200E+02
     18.995  0.0000E+00  0.3200E+02
     19.102  0.0000E+00  0.3200E+02
     19.209  0.0000E+00  0.3200E+02
     19.316  0.0000E+00  0.3200E+02
     19.423  0.0000E+00  0.3200E+02
     19.530  0.0000E+00  0.3200E+02
     19.52997226    -12.54372025  301      3.86731908      1.00000000
    -12.544  0.0000E+00  0.0000E+00  0.0000E+00
    -12.437  0.0000E+00  0.0000E+00  0.0000E+00
    -12.330  0.0000E+00  0.0000E+00  0.0000E+00
    -12.223  0.0000E+00  0.0000E+00  0.0000E+00
    -12.116  0.0000E+00  0.0000E+00  0.0000E+00
    -12.009  0.0000E+00  0.0000E+00  0.0000E+00
    -11.902  0.0000E+00  0.0000E+00  0.0000E+00
    -11.795  0.0000E+00  0.0000E+00  0.0000E+00
    -11.688  0.0000E+00  0.0000E+00  0.0000E+00
    -11.582  0.0000E+00  0.0000E+00  0.0000E+00
    -11.475  0.0000E+00  0.0000E+00  0.0000E+00
    -11.368  0.0000E+00  0.0000E+00  0.0000E+00
    -11.261  0.0000E+00  0.0000E+00  0.0000E+00
    -11.154  0.0000E+00  0.0000E+00  0.0000E+00
    -11.047  0.6035E-02  0.1272E-01  0.1250E+02
    -10.940  0.1282E-02  0.2702E-02  0.2555E+02
    -10.833  0.5458E-03  0.9778E-04  0.3676E+02
    -10.726  0.0000E+00  0.0000E+00  0.0000E+00
    -10.619  0.0000E+00  0.0000E+00  0.0000E+00
    -10.512  0.0000E+00  0.0000E+00  0.0000E+00
    -10.405  0.0000E+00  0.0000E+00  0.0000E+00
    -10.299  0.0000E+00  0.0000E+00  0.0000E+00
    -10.192  0.0000E+00  0.0000E+00  0.0000E+00
    -10.085  0.0000E+00  0.0000E+00  0.0000E+00
     -9.978  0.0000E+00  0.0000E+00  0.0000E+00
     -9.871  0.0000E+00  0.0000E+00  0.0000E+00
     -9.764  0.0000E+00  0.0000E+00  0.0000E+00
     -9.657  0.0000E+00  0.0000E+00  0.0000E+00
     -9.550  0.0000E+00  0.0000E+00  0.0000E+00
     -9.443  0.0000E+00  0.0000E+00  0.0000E+00
     -9.336  0.0000E+00  0.0000E+00  0.0000E+00
     -9.229  0.0000E+00  0.0000E+00  0.0000E+00
     -9.123  0.0000E+00  0.0000E+00  0.0000E+00
     -9.016  0.0000E+00  0.0000E+00  0.0000E+00
     -8.909  0.1514E-01  0.1509E-13  0.4373E-13
     -8.802  0.0000E+00  0.0000E+00  0.0000E+00
     -8.695  0.0000E+00  0.0000E+00  0.0000E+00
     -8.588  0.1134E+00  0.3328E-02  0.8836E-02
     -8.481  0.8297E-01  0.3435E-02  0.7969E-02
     -8.374  0.0000E+00  0.0000E+00  0.0000E+00
     -8.267  0.0000E+00  0.0000E+00  0.0000E+00
     -8.160  0.8770E-10  0.7589E-11  0.1547E-10
     -8.053  0.1501E+00  0.1299E-01  0.2648E-01
     -7.946  0.0000E+00  0.0000E+00  0.0000E+00
     -7.840  0.6888E-01  0.9145E-02  0.1582E-01
     -7.733  0.8951E-01  0.1201E-01  0.2315E-01
     -7.626  0.0000E+00  0.0000E+00  0.0000E+00
     -7.519  0.0000E+00  0.0000E+00  0.0000E+00
     -7.412  0.2156E-09  0.5729E-10  0.7309E-10
     -7.305  0.5354E-01  0.1423E-01  0.1815E-01
     -7.198  0.2036E+00  0.5537E-01  0.8748E-01
     -7.091  0.2109E+00  0.7365E-01  0.1030E+00
     -6.984  0.1653E+00  0.6470E-01  0.9672E-01
     -6.877  0.0000E+00  0.0000E+00  0.0000E+00
     -6.770  0.0000E+00  0.0000E+00  0.0000E+00
     -6.664  0.7681E-01  0.8178E-01  0.8927E-01
     -6.557  0.1126E+00  0.1325E+00  0.1621E+00
     -6.450  0.1933E-18  0.6588E-08  0.6092E-08
     -6.343  0.5319E-12  0.6834E-01  0.6956E-01
     -6.236  0.0000E+00  0.0000E+00  0.0000E+00
     -6.129  0.0000E+00  0.0000E+00  0.0000E+00
     -6.022  0.0000E+00  0.0000E+00  0.0000E+00
     -5.915  0.0000E+00  0.0000E+00  0.0000E+00
     -5.808  0.0000E+00  0.0000E+00  0.0000E+00
     -5.701  0.0000E+00  0.0000E+00  0.0000E+00
     -5.594  0.0000E+00  0.0000E+00  0.0000E+00
     -5.488  0.0000E+00  0.0000E+00  0.0000E+00
     -5.381  0.0000E+00  0.0000E+00  0.0000E+00
     -5.274  0.0000E+00  0.0000E+00  0.0000E+00
     -5.167  0.0000E+00  0.0000E+00  0.0000E+00
     -5.060  0.0000E+00  0.0000E+00  0.0000E+00
     -4.953  0.0000E+00  0.0000E+00  0.0000E+00
     -4.846  0.0000E+00  0.0000E+00  0.0000E+00
     -4.739  0.0000E+00  0.0000E+00  0.0000E+00
     -4.632  0.0000E+00  0.0000E+00  0.0000E+00
     -4.525  0.0000E+00  0.0000E+00  0.0000E+00
     -4.418  0.0000E+00  0.0000E+00  0.0000E+00
     -4.311  0.0000E+00  0.0000E+00  0.0000E+00
     -4.205  0.0000E+00  0.0000E+00  0.0000E+00
     -4.098  0.0000E+00  0.0000E+00  0.0000E+00
     -3.991  0.0000E+00  0.0000E+00  0.0000E+00
     -3.884  0.0000E+00  0.0000E+00  0.0000E+00
     -3.777  0.0000E+00  0.0000E+00  0.0000E+00
     -3.670  0.0000E+00  0.0000E+00  0.0000E+00
     -3.563  0.0000E+00  0.0000E+00  0.0000E+00
     -3.456  0.0000E+00  0.0000E+00  0.0000E+00
     -3.349  0.0000E+00  0.0000E+00  0.0000E+00
     -3.242  0.0000E+00  0.0000E+00  0.0000E+00
     -3.135  0.0000E+00  0.0000E+00  0.0000E+00
     -3.029  0.1137E+00  0.4471E-12  0.1495E-02
     -2.922  0.4361E-02  0.1342E-05  0.2335E-04
     -2.815  0.9302E-01  0.2101E-01  0.1001E-03
     -2.708  0.7483E+00  0.3622E-01  0.5053E-02
     -2.601  0.1919E+01  0.1448E+00  0.2983E-01
     -2.494  0.0000E+00  0.0000E+00  0.0000E+00
     -2.387  0.0000E+00  0.0000E+00  0.0000E+00
     -2.280  0.0000E+00  0.0000E+00  0.0000E+00
     -2.173  0.5991E+00  0.1101E+00  0.1789E-01
     -2.066  0.1189E-10  0.1085E-11  0.4533E-12
     -1.959  0.7214E+00  0.6584E-01  0.2751E-01
     -1.852  0.0000E+00  0.0000E+00  0.0000E+00
     -1.746  0.0000E+00  0.0000E+00  0.0000E+00
     -1.639  0.3773E-07  0.1174E-07  0.2239E-08
     -1.532  0.3296E+00  0.6264E-01  0.2036E-01
     -1.425  0.0000E+00  0.0000E+00  0.0000E+00
     -1.318  0.0000E+00  0.0000E+00  0.0000E+00
     -1.211  0.0000E+00  0.0000E+00  0.0000E+00
     -1.104  0.0000E+00  0.0000E+00  0.0000E+00
     -0.997  0.8516E-09  0.1809E-09  0.6877E-10
     -0.890  0.5384E+00  0.1144E+00  0.4348E-01
     -0.783  0.0000E+00  0.0000E+00  0.0000E+00
     -0.676  0.0000E+00  0.0000E+00  0.0000E+00
     -0.570  0.0000E+00  0.0000E+00  0.0000E+00
     -0.463  0.0000E+00  0.0000E+00  0.0000E+00
     -0.356  0.1534E-03  0.3921E-04  0.1565E-04
     -0.249  0.2451E-11  0.7744E-10  0.4522E-11
     -0.142  0.5228E-02  0.1652E+00  0.9645E-02
     -0.035  0.0000E+00  0.0000E+00  0.0000E+00
      0.072  0.1818E-08  0.1177E-07  0.9156E-09
      0.179  0.4928E-01  0.3189E+00  0.2481E-01
      0.286  0.0000E+00  0.0000E+00  0.0000E+00
      0.393  0.4984E-09  0.1479E-07  0.1639E-08
      0.500  0.1341E-01  0.2986E+00  0.2579E-01
      0.606  0.4475E-01  0.5387E+00  0.2849E-01
      0.713  0.0000E+00  0.0000E+00  0.0000E+00
      0.820  0.0000E+00  0.0000E+00  0.0000E+00
      0.927  0.1477E-02  0.4314E-02  0.5016E-03
      1.034  0.1909E-08  0.7953E-09  0.3137E-09
      1.141  0.2993E+00  0.2902E+00  0.5681E-01
      1.248  0.0000E+00  0.0000E+00  0.0000E+00
      1.355  0.4645E-02  0.3753E+00  0.3066E-01
      1.462  0.2398E-13  0.3975E+00  0.2332E-01
      1.569  0.6082E-14  0.1133E+00  0.8816E-02
      1.676  0.5792E-03  0.3754E-02  0.5296E-03
      1.783  0.1258E-01  0.3681E+00  0.4024E-01
      1.889  0.5047E-08  0.1952E+00  0.1743E-01
      1.996  0.8928E-01  0.3159E+00  0.5155E-01
      2.103  0.8575E-28  0.2531E-15  0.2986E-16
      2.210  0.1308E-12  0.3817E+00  0.4506E-01
      2.317  0.0000E+00  0.0000E+00  0.0000E+00
      2.424  0.0000E+00  0.0000E+00  0.0000E+00
      2.531  0.0000E+00  0.0000E+00  0.0000E+00
      2.638  0.5862E-13  0.3643E+00  0.5856E-01
      2.745  0.1141E-22  0.4903E-10  0.1140E-10
      2.852  0.3825E-13  0.1645E+00  0.3824E-01
      2.959  0.9353E-13  0.2287E+00  0.4715E-01
      3.065  0.0000E+00  0.0000E+00  0.0000E+00
      3.172  0.0000E+00  0.0000E+00  0.0000E+00
      3.279  0.1275E-13  0.5010E-01  0.1444E-01
      3.386  0.1906E-21  0.1918E-09  0.7145E-10
      3.493  0.1832E-12  0.1845E+00  0.6874E-01
      3.600  0.0000E+00  0.0000E+00  0.0000E+00
      3.707  0.0000E+00  0.0000E+00  0.0000E+00
      3.814  0.1255E-12  0.1367E-01  0.8557E-02
      3.921  0.0000E+00  0.0000E+00  0.0000E+00
      4.028  0.0000E+00  0.0000E+00  0.0000E+00
      4.135  0.0000E+00  0.0000E+00  0.0000E+00
      4.242  0.5607E-05  0.6184E-17  0.7722E-18
      4.348  0.0000E+00  0.0000E+00  0.0000E+00
      4.455  0.0000E+00  0.0000E+00  0.0000E+00
      4.562  0.0000E+00  0.0000E+00  0.0000E+00
      4.669  0.0000E+00  0.0000E+00  0.0000E+00
      4.776  0.1015E+00  0.1923E-01  0.6511E-02
      4.883  0.0000E+00  0.0000E+00  0.0000E+00
      4.990  0.1939E+00  0.5106E-01  0.9900E-02
      5.097  0.0000E+00  0.0000E+00  0.0000E+00
      5.204  0.1017E-11  0.3926E-01  0.1228E-01
      5.311  0.5799E-01  0.6369E-01  0.1812E-01
      5.418  0.2327E+00  0.6744E-01  0.1729E-01
      5.524  0.4442E-09  0.4541E-09  0.2111E-09
      5.631  0.1967E+00  0.2011E+00  0.9349E-01
      5.738  0.0000E+00  0.0000E+00  0.0000E+00
      5.845  0.0000E+00  0.0000E+00  0.0000E+00
      5.952  0.8792E-02  0.7267E-02  0.3150E-02
      6.059  0.1406E-01  0.7744E-02  0.2551E-02
      6.166  0.5536E-15  0.2896E-15  0.6747E-16
      6.273  0.7990E+00  0.4618E+00  0.1296E+00
      6.380  0.2930E+00  0.1516E+00  0.3597E-01
      6.487  0.0000E+00  0.0000E+00  0.0000E+00
      6.594  0.0000E+00  0.0000E+00  0.0000E+00
      6.700  0.0000E+00  0.0000E+00  0.0000E+00
      6.807  0.2234E-15  0.6370E-15  0.1409E-16
      6.914  0.4025E-01  0.1147E+00  0.2538E-02
      7.021  0.7954E-11  0.1456E+00  0.5866E-01
      7.128  0.2142E+00  0.1741E+00  0.9372E-01
      7.235  0.5054E+00  0.1711E+00  0.1367E+00
      7.342  0.8398E-04  0.2990E-04  0.2025E-04
      7.449  0.6967E-26  0.4435E-12  0.1007E-13
      7.556  0.2022E+00  0.5239E+00  0.3521E-01
      7.663  0.1749E+00  0.3762E+00  0.5080E-01
      7.770  0.0000E+00  0.0000E+00  0.0000E+00
      7.877  0.0000E+00  0.0000E+00  0.0000E+00
      7.983  0.0000E+00  0.0000E+00  0.0000E+00
      8.090  0.1790E-02  0.8569E+00  0.1222E+00
      8.197  0.1223E-01  0.3633E-01  0.9345E-02
      8.304  0.4399E-01  0.2120E+00  0.4170E-01
      8.411  0.7768E-03  0.5316E+00  0.6217E-01
      8.518  0.5729E-01  0.7024E+00  0.1594E+00
      8.625  0.0000E+00  0.0000E+00  0.0000E+00
      8.732  0.0000E+00  0.0000E+00  0.0000E+00
      8.839  0.7570E-03  0.3445E+00  0.1107E+00
      8.946  0.0000E+00  0.0000E+00  0.0000E+00
      9.053  0.1617E-13  0.1682E+00  0.1566E-01
      9.159  0.4193E-12  0.5609E+00  0.9465E-01
      9.266  0.0000E+00  0.0000E+00  0.0000E+00
      9.373  0.1861E-02  0.1736E+00  0.7120E-01
      9.480  0.6053E-29  0.2694E-16  0.6689E-17
      9.587  0.8388E-11  0.4853E+00  0.1205E+00
      9.694  0.1363E+00  0.2075E-01  0.2421E-01
      9.801  0.1590E-22  0.1397E-09  0.2284E-10
      9.908  0.7058E-13  0.5965E+00  0.9757E-01
     10.015  0.1655E+00  0.2262E+00  0.6592E-01
     10.122  0.0000E+00  0.0000E+00  0.0000E+00
     10.229  0.0000E+00  0.0000E+00  0.0000E+00
     10.336  0.0000E+00  0.0000E+00  0.0000E+00
     10.442  0.0000E+00  0.0000E+00  0.0000E+00
     10.549  0.0000E+00  0.0000E+00  0.0000E+00
     10.656  0.0000E+00  0.0000E+00  0.0000E+00
     10.763  0.5678E-02  0.4457E-01  0.1426E-01
     10.870  0.6043E-01  0.4093E+00  0.1026E+00
     10.977  0.2335E-01  0.3597E+00  0.6317E-01
     11.084  0.8212E-14  0.2051E-11  0.3507E-12
     11.191  0.7367E-01  0.8265E+00  0.1889E+00
     11.298  0.2553E-02  0.3637E+00  0.5212E-01
     11.405  0.9879E-01  0.4566E+00  0.9084E-01
     11.512  0.2919E-01  0.1195E+00  0.7560E-01
     11.618  0.1461E-01  0.6377E+00  0.1009E+00
     11.725  0.7002E-20  0.8107E-09  0.4336E-07
     11.832  0.1198E-12  0.3284E+00  0.1821E+00
     11.939  0.0000E+00  0.0000E+00  0.0000E+00
     12.046  0.3755E-17  0.1667E-04  0.3317E-05
     12.153  0.1237E-12  0.5491E+00  0.1093E+00
     12.260  0.0000E+00  0.0000E+00  0.0000E+00
     12.367  0.2760E-01  0.1153E+00  0.7616E-01
     12.474  0.7439E-01  0.3145E-01  0.9895E-02
     12.581  0.1068E+00  0.2565E+00  0.1409E+00
     12.688  0.0000E+00  0.0000E+00  0.0000E+00
     12.794  0.3201E-11  0.3017E-01  0.1469E+00
     12.901  0.0000E+00  0.0000E+00  0.0000E+00
     13.008  0.0000E+00  0.0000E+00  0.0000E+00
     13.115  0.3302E-03  0.2640E-03  0.1022E-02
     13.222  0.0000E+00  0.0000E+00  0.0000E+00
     13.329  0.8840E-01  0.8172E-01  0.2108E-02
     13.436  0.9915E-12  0.1497E+00  0.2942E+00
     13.543  0.8994E-02  0.9150E-01  0.5103E-01
     13.650  0.2649E-03  0.1410E+00  0.7822E-01
     13.757  0.4835E-01  0.4202E+00  0.8274E-01
     13.864  0.1145E-23  0.3107E-22  0.2358E-15
     13.971  0.9432E-09  0.1927E+00  0.4655E-01
     14.077  0.1106E-02  0.2561E-04  0.7798E-04
     14.184  0.0000E+00  0.0000E+00  0.0000E+00
     14.291  0.1466E-03  0.2247E-03  0.9987E-05
     14.398  0.6894E-01  0.2845E+00  0.2007E+00
     14.505  0.1403E+00  0.2802E+00  0.6224E-01
     14.612  0.0000E+00  0.0000E+00  0.0000E+00
     14.719  0.2681E-01  0.9472E-01  0.2633E+00
     14.826  0.4832E-02  0.1751E+00  0.9613E-01
     14.933  0.0000E+00  0.0000E+00  0.0000E+00
     15.040  0.0000E+00  0.0000E+00  0.0000E+00
     15.147  0.0000E+00  0.0000E+00  0.0000E+00
     15.253  0.6208E-01  0.4665E-01  0.3228E-01
     15.360  0.0000E+00  0.0000E+00  0.0000E+00
     15.467  0.6164E-01  0.1172E+00  0.8677E-01
     15.574  0.3229E-17  0.3758E-12  0.8631E-13
     15.681  0.1080E-05  0.4260E+00  0.1907E+00
     15.788  0.0000E+00  0.0000E+00  0.0000E+00
     15.895  0.3989E-02  0.4660E-01  0.7790E-01
     16.002  0.3650E-09  0.3658E+00  0.5515E-01
     16.109  0.6315E-11  0.2468E+00  0.1836E+00
     16.216  0.0000E+00  0.0000E+00  0.0000E+00
     16.323  0.0000E+00  0.0000E+00  0.0000E+00
     16.430  0.0000E+00  0.0000E+00  0.0000E+00
     16.536  0.3759E-02  0.5646E+00  0.1125E+00
     16.643  0.2249E-01  0.7455E+00  0.8118E-01
     16.750  0.2079E-01  0.1524E+00  0.1598E-02
     16.857  0.5053E-01  0.4240E+00  0.8782E-01
     16.964  0.0000E+00  0.0000E+00  0.0000E+00
     17.071  0.1586E-01  0.9661E-02  0.1278E+00
     17.178  0.1524E-06  0.1237E-01  0.3569E-01
     17.285  0.0000E+00  0.0000E+00  0.0000E+00
     17.392  0.0000E+00  0.0000E+00  0.0000E+00
     17.499  0.0000E+00  0.0000E+00  0.0000E+00
     17.606  0.0000E+00  0.0000E+00  0.0000E+00
     17.712  0.0000E+00  0.0000E+00  0.0000E+00
     17.819  0.0000E+00  0.0000E+00  0.0000E+00
     17.926  0.5922E-06  0.5203E-05  0.1408E-06
     18.033  0.2384E-01  0.2095E+00  0.5670E-02
     18.140  0.0000E+00  0.0000E+00  0.0000E+00
     18.247  0.0000E+00  0.0000E+00  0.0000E+00
     18.354  0.0000E+00  0.0000E+00  0.0000E+00
     18.461  0.0000E+00  0.0000E+00  0.0000E+00
     18.568  0.0000E+00  0.0000E+00  0.0000E+00
     18.675  0.0000E+00  0.0000E+00  0.0000E+00
     18.782  0.0000E+00  0.0000E+00  0.0000E+00
     18.888  0.0000E+00  0.0000E+00  0.0000E+00
     18.995  0.0000E+00  0.0000E+00  0.0000E+00
     19.102  0.0000E+00  0.0000E+00  0.0000E+00
     19.209  0.0000E+00  0.0000E+00  0.0000E+00
     19.316  0.0000E+00  0.0000E+00  0.0000E+00
     19.423  0.0000E+00  0.0000E+00  0.0000E+00
     19.530  0.0000E+00  0.0000E+00  0.0000E+00
     19.52997226    -12.54372025  301      3.86731908      1.00000000
    -12.544  0.0000E+00  0.0000E+00  0.0000E+00
    -12.437  0.0000E+00  0.0000E+00  0.0000E+00
    -12.330  0.0000E+00  0.0000E+00  0.0000E+00
    -12.223  0.0000E+00  0.0000E+00  0.0000E+00
    -12.116  0.0000E+00  0.0000E+00  0.0000E+00
    -12.009  0.0000E+00  0.0000E+00  0.0000E+00
    -11.902  0.0000E+00  0.0000E+00  0.0000E+00
    -11.795  0.0000E+00  0.0000E+00  0.0000E+00
    -11.688  0.0000E+00  0.0000E+00  0.0000E+00
    -11.582  0.0000E+00  0.0000E+00  0.0000E+00
    -11.475  0.0000E+00  0.0000E+00  0.0000E+00
    -11.368  0.0000E+00  0.0000E+00  0.0000E+00
    -11.261  0.0000E+00  0.0000E+00  0.0000E+00
    -11.154  0.0000E+00  0.0000E+00  0.0000E+00
    -11.047  0.3260E+00  0.2975E-02  0.1141E-02
    -10.940  0.1162E-01  0.6553E-01  0.1030E-01
    -10.833  0.6221E-03  0.4363E-02  0.7654E-02
    -10.726  0.0000E+00  0.0000E+00  0.0000E+00
    -10.619  0.0000E+00  0.0000E+00  0.0000E+00
    -10.512  0.0000E+00  0.0000E+00  0.0000E+00
    -10.405  0.0000E+00  0.0000E+00  0.0000E+00
    -10.299  0.0000E+00  0.0000E+00  0.0000E+00
    -10.192  0.0000E+00  0.0000E+00  0.0000E+00
    -10.085  0.0000E+00  0.0000E+00  0.0000E+00
     -9.978  0.0000E+00  0.0000E+00  0.0000E+00
     -9.871  0.0000E+00  0.0000E+00  0.0000E+00
     -9.764  0.0000E+00  0.0000E+00  0.0000E+00
     -9.657  0.0000E+00  0.0000E+00  0.0000E+00
     -9.550  0.0000E+00  0.0000E+00  0.0000E+00
     -9.443  0.0000E+00  0.0000E+00  0.0000E+00
     -9.336  0.0000E+00  0.0000E+00  0.0000E+00
     -9.229  0.0000E+00  0.0000E+00  0.0000E+00
     -9.123  0.0000E+00  0.0000E+00  0.0000E+00
     -9.016  0.0000E+00  0.0000E+00  0.0000E+00
     -8.909  0.3654E-01  0.8743E-15  0.1271E-15
     -8.802  0.0000E+00  0.0000E+00  0.0000E+00
     -8.695  0.0000E+00  0.0000E+00  0.0000E+00
     -8.588  0.2934E+00  0.1959E-02  0.6724E-04
     -8.481  0.2208E+00  0.1966E-02  0.6017E-04
     -8.374  0.0000E+00  0.0000E+00  0.0000E+00
     -8.267  0.0000E+00  0.0000E+00  0.0000E+00
     -8.160  0.2643E-09  0.3596E-11  0.1531E-12
     -8.053  0.4523E+00  0.6156E-02  0.2621E-03
     -7.946  0.0000E+00  0.0000E+00  0.0000E+00
     -7.840  0.2344E+00  0.3719E-02  0.1748E-03
     -7.733  0.3131E+00  0.4082E-02  0.3283E-03
     -7.626  0.0000E+00  0.0000E+00  0.0000E+00
     -7.519  0.0000E+00  0.0000E+00  0.0000E+00
     -7.412  0.9867E-09  0.1772E-10  0.8091E-12
     -7.305  0.2451E+00  0.4402E-02  0.2010E-03
     -7.198  0.1011E+01  0.1195E-01  0.1193E-02
     -7.091  0.1202E+01  0.1521E-01  0.1238E-02
     -6.984  0.1061E+01  0.7805E-02  0.1414E-02
     -6.877  0.0000E+00  0.0000E+00  0.0000E+00
     -6.770  0.0000E+00  0.0000E+00  0.0000E+00
     -6.664  0.1023E+01  0.7851E-02  0.7405E-03
     -6.557  0.1733E+01  0.7291E-02  0.1139E-02
     -6.450  0.7097E-07  0.4906E-20  0.4540E-10
     -6.343  0.7668E+00  0.6248E-05  0.2584E-03
     -6.236  0.0000E+00  0.0000E+00  0.0000E+00
     -6.129  0.0000E+00  0.0000E+00  0.0000E+00
     -6.022  0.0000E+00  0.0000E+00  0.0000E+00
     -5.915  0.0000E+00  0.0000E+00  0.0000E+00
     -5.808  0.0000E+00  0.0000E+00  0.0000E+00
     -5.701  0.0000E+00  0.0000E+00  0.0000E+00
     -5.594  0.0000E+00  0.0000E+00  0.0000E+00
     -5.488  0.0000E+00  0.0000E+00  0.0000E+00
     -5.381  0.0000E+00  0.0000E+00  0.0000E+00
     -5.274  0.0000E+00  0.0000E+00  0.0000E+00
     -5.167  0.0000E+00  0.0000E+00  0.0000E+00
     -5.060  0.0000E+00  0.0000E+00  0.0000E+00
     -4.953  0.0000E+00  0.0000E+00  0.0000E+00
     -4.846  0.0000E+00  0.0000E+00  0.0000E+00
     -4.739  0.0000E+00  0.0000E+00  0.0000E+00
     -4.632  0.0000E+00  0.0000E+00  0.0000E+00
     -4.525  0.0000E+00  0.0000E+00  0.0000E+00
     -4.418  0.0000E+00  0.0000E+00  0.0000E+00
     -4.311  0.0000E+00  0.0000E+00  0.0000E+00
     -4.205  0.0000E+00  0.0000E+00  0.0000E+00
     -4.098  0.0000E+00  0.0000E+00  0.0000E+00
     -3.991  0.0000E+00  0.0000E+00  0.0000E+00
     -3.884  0.0000E+00  0.0000E+00  0.0000E+00
     -3.777  0.0000E+00  0.0000E+00  0.0000E+00
     -3.670  0.0000E+00  0.0000E+00  0.0000E+00
     -3.563  0.0000E+00  0.0000E+00  0.0000E+00
     -3.456  0.0000E+00  0.0000E+00  0.0000E+00
     -3.349  0.0000E+00  0.0000E+00  0.0000E+00
     -3.242  0.0000E+00  0.0000E+00  0.0000E+00
     -3.135  0.0000E+00  0.0000E+00  0.0000E+00
     -3.029  0.1506E-15  0.3802E-01  0.1267E-02