  96  96   0   0
  0.2080188E+02  0.1257760E-08  0.1245754E-08  0.1274818E-08  0.5000000E-15
  1.000000000000000E-004
  CAR 
 MAPbI3-Cubic                            
      8.87952550    -19.48343292  301      1.36334152      1.00000000
    -19.483  0.0000E+00  0.0000E+00
    -19.389  0.0000E+00  0.0000E+00
    -19.294  0.0000E+00  0.0000E+00
    -19.200  0.0000E+00  0.0000E+00
    -19.105  0.0000E+00  0.0000E+00
    -19.011  0.0000E+00  0.0000E+00
    -18.916  0.0000E+00  0.0000E+00
    -18.822  0.0000E+00  0.0000E+00
    -18.727  0.0000E+00  0.0000E+00
    -18.633  0.0000E+00  0.0000E+00
    -18.538  0.0000E+00  0.0000E+00
    -18.443  0.0000E+00  0.0000E+00
    -18.349  0.0000E+00  0.0000E+00
    -18.254  0.0000E+00  0.0000E+00
    -18.160  0.0000E+00  0.1600E+02
    -18.065  0.0000E+00  0.1600E+02
    -17.971  0.0000E+00  0.1600E+02
    -17.876  0.0000E+00  0.1600E+02
    -17.782  0.0000E+00  0.1600E+02
    -17.687  0.0000E+00  0.1600E+02
    -17.593  0.0000E+00  0.1600E+02
    -17.498  0.0000E+00  0.1600E+02
    -17.403  0.0000E+00  0.1600E+02
    -17.309  0.0000E+00  0.1600E+02
    -17.214  0.0000E+00  0.1600E+02
    -17.120  0.0000E+00  0.1600E+02
    -17.025  0.0000E+00  0.1600E+02
    -16.931  0.0000E+00  0.1600E+02
    -16.836  0.0000E+00  0.1600E+02
    -16.742  0.0000E+00  0.1600E+02
    -16.647  0.0000E+00  0.1600E+02
    -16.553  0.0000E+00  0.1600E+02
    -16.458  0.0000E+00  0.1600E+02
    -16.364  0.0000E+00  0.1600E+02
    -16.269  0.0000E+00  0.1600E+02
    -16.174  0.0000E+00  0.1600E+02
    -16.080  0.0000E+00  0.1600E+02
    -15.985  0.0000E+00  0.1600E+02
    -15.891  0.0000E+00  0.1600E+02
    -15.796  0.0000E+00  0.1600E+02
    -15.702  0.0000E+00  0.1600E+02
    -15.607  0.0000E+00  0.1600E+02
    -15.513  0.0000E+00  0.1600E+02
    -15.418  0.0000E+00  0.1600E+02
    -15.324  0.0000E+00  0.1600E+02
    -15.229  0.0000E+00  0.1600E+02
    -15.134  0.0000E+00  0.1600E+02
    -15.040  0.1692E+03  0.8000E+02
    -14.945  0.0000E+00  0.9600E+02
    -14.851  0.0000E+00  0.9600E+02
    -14.756  0.0000E+00  0.9600E+02
    -14.662  0.0000E+00  0.9600E+02
    -14.567  0.0000E+00  0.9600E+02
    -14.473  0.0000E+00  0.9600E+02
    -14.378  0.0000E+00  0.9600E+02
    -14.284  0.0000E+00  0.9600E+02
    -14.189  0.0000E+00  0.9600E+02
    -14.094  0.0000E+00  0.9600E+02
    -14.000  0.0000E+00  0.9600E+02
    -13.905  0.0000E+00  0.9600E+02
    -13.811  0.0000E+00  0.9600E+02
    -13.716  0.0000E+00  0.9600E+02
    -13.622  0.0000E+00  0.9600E+02
    -13.527  0.0000E+00  0.9600E+02
    -13.433  0.0000E+00  0.9600E+02
    -13.338  0.0000E+00  0.9600E+02
    -13.244  0.0000E+00  0.9600E+02
    -13.149  0.0000E+00  0.9600E+02
    -13.054  0.0000E+00  0.9600E+02
    -12.960  0.0000E+00  0.9600E+02
    -12.865  0.0000E+00  0.9600E+02
    -12.771  0.0000E+00  0.9600E+02
    -12.676  0.0000E+00  0.9600E+02
    -12.582  0.0000E+00  0.9600E+02
    -12.487  0.0000E+00  0.9600E+02
    -12.393  0.0000E+00  0.9600E+02
    -12.298  0.0000E+00  0.9600E+02
    -12.204  0.0000E+00  0.9600E+02
    -12.109  0.0000E+00  0.9600E+02
    -12.015  0.0000E+00  0.9600E+02
    -11.920  0.0000E+00  0.9600E+02
    -11.825  0.0000E+00  0.9600E+02
    -11.731  0.0000E+00  0.9600E+02
    -11.636  0.0000E+00  0.9600E+02
    -11.542  0.0000E+00  0.9600E+02
    -11.447  0.0000E+00  0.9600E+02
    -11.353  0.1351E-08  0.9600E+02
    -11.258  0.9395E-11  0.1040E+03
    -11.164  0.0000E+00  0.1120E+03
    -11.069  0.0000E+00  0.1120E+03
    -10.975  0.0000E+00  0.1120E+03
    -10.880  0.0000E+00  0.1120E+03
    -10.785  0.1567E+01  0.1125E+03
    -10.691  0.4761E+01  0.1146E+03
    -10.596  0.4673E+01  0.1198E+03
    -10.502  0.4662E+01  0.1265E+03
    -10.407  0.3134E+01  0.1291E+03
    -10.313  0.1947E+01  0.1346E+03
    -10.218  0.0000E+00  0.1400E+03
    -10.124  0.3134E+01  0.1441E+03
    -10.029  0.9223E+01  0.1504E+03
     -9.935  0.7535E+01  0.1586E+03
     -9.840  0.0000E+00  0.1600E+03
     -9.745  0.0000E+00  0.1600E+03
     -9.651  0.0000E+00  0.1600E+03
     -9.556  0.0000E+00  0.1600E+03
     -9.462  0.0000E+00  0.1600E+03
     -9.367  0.0000E+00  0.1600E+03
     -9.273  0.0000E+00  0.1600E+03
     -9.178  0.0000E+00  0.1600E+03
     -9.084  0.0000E+00  0.1600E+03
     -8.989  0.0000E+00  0.1600E+03
     -8.895  0.0000E+00  0.1600E+03
     -8.800  0.0000E+00  0.1600E+03
     -8.706  0.0000E+00  0.1600E+03
     -8.611  0.0000E+00  0.1600E+03
     -8.516  0.0000E+00  0.1600E+03
     -8.422  0.0000E+00  0.1600E+03
     -8.327  0.0000E+00  0.1600E+03
     -8.233  0.0000E+00  0.1600E+03
     -8.138  0.0000E+00  0.1600E+03
     -8.044  0.0000E+00  0.1600E+03
     -7.949  0.0000E+00  0.1600E+03
     -7.855  0.0000E+00  0.1600E+03
     -7.760  0.0000E+00  0.1600E+03
     -7.666  0.0000E+00  0.1680E+03
     -7.571  0.2820E+02  0.1880E+03
     -7.476  0.0000E+00  0.1920E+03
     -7.382  0.0000E+00  0.1920E+03
     -7.287  0.0000E+00  0.1920E+03
     -7.193  0.0000E+00  0.1920E+03
     -7.098  0.0000E+00  0.1920E+03
     -7.004  0.0000E+00  0.1921E+03
     -6.909  0.1563E+01  0.1925E+03
     -6.815  0.0000E+00  0.1925E+03
     -6.720  0.0000E+00  0.1934E+03
     -6.626  0.0000E+00  0.1943E+03
     -6.531  0.3134E+01  0.1956E+03
     -6.436  0.2655E+01  0.1967E+03
     -6.342  0.1592E+01  0.1990E+03
     -6.247  0.2759E+01  0.2006E+03
     -6.153  0.8154E+01  0.2023E+03
     -6.058  0.3134E+01  0.2039E+03
     -5.964  0.7835E+00  0.2055E+03
     -5.869  0.1566E+01  0.2066E+03
     -5.775  0.3138E+01  0.2133E+03
     -5.680  0.0000E+00  0.2226E+03
     -5.586  0.0000E+00  0.2235E+03
     -5.491  0.0000E+00  0.2239E+03
     -5.396  0.0000E+00  0.2240E+03
     -5.302  0.0000E+00  0.2240E+03
     -5.207  0.0000E+00  0.2240E+03
     -5.113  0.0000E+00  0.2240E+03
     -5.018  0.0000E+00  0.2240E+03
     -4.924  0.0000E+00  0.2240E+03
     -4.829  0.0000E+00  0.2240E+03
     -4.735  0.0000E+00  0.2240E+03
     -4.640  0.0000E+00  0.2240E+03
     -4.546  0.0000E+00  0.2240E+03
     -4.451  0.0000E+00  0.2240E+03
     -4.357  0.0000E+00  0.2240E+03
     -4.262  0.0000E+00  0.2240E+03
     -4.167  0.0000E+00  0.2240E+03
     -4.073  0.0000E+00  0.2240E+03
     -3.978  0.0000E+00  0.2240E+03
     -3.884  0.0000E+00  0.2240E+03
     -3.789  0.0000E+00  0.2240E+03
     -3.695  0.0000E+00  0.2240E+03
     -3.600  0.2350E+01  0.2242E+03
     -3.506  0.2941E+02  0.2465E+03
     -3.411  0.0000E+00  0.2560E+03
     -3.317  0.0000E+00  0.2560E+03
     -3.222  0.0000E+00  0.2560E+03
     -3.127  0.0000E+00  0.2560E+03
     -3.033  0.0000E+00  0.2560E+03
     -2.938  0.0000E+00  0.2560E+03
     -2.844  0.0000E+00  0.2560E+03
     -2.749  0.0000E+00  0.2560E+03
     -2.655  0.0000E+00  0.2560E+03
     -2.560  0.0000E+00  0.2560E+03
     -2.466  0.0000E+00  0.2560E+03
     -2.371  0.0000E+00  0.2560E+03
     -2.277  0.0000E+00  0.2560E+03
     -2.182  0.0000E+00  0.2560E+03
     -2.087  0.2350E+01  0.2567E+03
     -1.993  0.3917E+01  0.2591E+03
     -1.898  0.0000E+00  0.2616E+03
     -1.804  0.1914E-11  0.2635E+03
     -1.709  0.7918E+00  0.2662E+03
     -1.615  0.8134E-03  0.2689E+03
     -1.520  0.4328E+00  0.2726E+03
     -1.426  0.1919E+01  0.2760E+03
     -1.331  0.1277E+00  0.2788E+03
     -1.237  0.0000E+00  0.2799E+03
     -1.142  0.0000E+00  0.2800E+03
     -1.048  0.0000E+00  0.2801E+03
     -0.953  0.3548E+01  0.2817E+03
     -0.858  0.1230E-03  0.2867E+03
     -0.764  0.4696E+01  0.2933E+03
     -0.669  0.3124E+01  0.2989E+03
     -0.575  0.4701E+01  0.3030E+03
     -0.480  0.3682E+01  0.3061E+03
     -0.386  0.4700E+01  0.3107E+03
     -0.291  0.4616E+01  0.3155E+03
     -0.197  0.6997E+01  0.3222E+03
     -0.102  0.5995E+01  0.3289E+03
     -0.008  0.3849E+01  0.3346E+03
      0.087  0.5483E+01  0.3409E+03
      0.182  0.6249E+01  0.3494E+03
      0.276  0.1834E+01  0.3585E+03
      0.371  0.1018E+02  0.3654E+03
      0.465  0.4949E+01  0.3725E+03
      0.560  0.1669E+02  0.3822E+03
      0.654  0.5484E+01  0.3881E+03
      0.749  0.5072E+01  0.3936E+03
      0.843  0.1266E+01  0.3964E+03
      0.938  0.6648E+00  0.3982E+03
      1.032  0.0000E+00  0.3993E+03
      1.127  0.0000E+00  0.3996E+03
      1.222  0.1567E+01  0.3999E+03
      1.316  0.0000E+00  0.3999E+03
      1.411  0.0000E+00  0.4000E+03
      1.505  0.0000E+00  0.4000E+03
      1.600  0.0000E+00  0.4000E+03
      1.694  0.0000E+00  0.4000E+03
      1.789  0.0000E+00  0.4000E+03
      1.883  0.0000E+00  0.4000E+03
      1.978  0.0000E+00  0.4000E+03
      2.072  0.0000E+00  0.4000E+03
      2.167  0.0000E+00  0.4000E+03
      2.262  0.0000E+00  0.4000E+03
      2.356  0.0000E+00  0.4000E+03
      2.451  0.0000E+00  0.4000E+03
      2.545  0.0000E+00  0.4000E+03
      2.640  0.0000E+00  0.4000E+03
      2.734  0.0000E+00  0.4000E+03
      2.829  0.0000E+00  0.4000E+03
      2.923  0.0000E+00  0.4000E+03
      3.018  0.5809E-07  0.4005E+03
      3.112  0.0000E+00  0.4007E+03
      3.207  0.4494E-12  0.4019E+03
      3.301  0.2350E+01  0.4033E+03
      3.396  0.0000E+00  0.4041E+03
      3.491  0.1567E+01  0.4060E+03
      3.585  0.0000E+00  0.4067E+03
      3.680  0.0000E+00  0.4079E+03
      3.774  0.0000E+00  0.4084E+03
      3.869  0.0000E+00  0.4093E+03
      3.963  0.4701E+01  0.4107E+03
      4.058  0.1731E+01  0.4117E+03
      4.152  0.6205E+00  0.4138E+03
      4.247  0.1567E+01  0.4161E+03
      4.341  0.1567E+01  0.4187E+03
      4.436  0.8045E+00  0.4214E+03
      4.531  0.0000E+00  0.4231E+03
      4.625  0.0000E+00  0.4239E+03
      4.720  0.0000E+00  0.4240E+03
      4.814  0.0000E+00  0.4240E+03
      4.909  0.0000E+00  0.4240E+03
      5.003  0.0000E+00  0.4240E+03
      5.098  0.0000E+00  0.4241E+03
      5.192  0.1216E+01  0.4246E+03
      5.287  0.1006E-12  0.4266E+03
      5.381  0.4362E+01  0.4292E+03
      5.476  0.3134E+01  0.4332E+03
      5.571  0.3109E+01  0.4364E+03
      5.665  0.1282E+01  0.4389E+03
      5.760  0.2218E+01  0.4411E+03
      5.854  0.1567E+01  0.4433E+03
      5.949  0.1567E+01  0.4461E+03
      6.043  0.8113E+01  0.4496E+03
      6.138  0.2838E+01  0.4530E+03
      6.232  0.1583E+01  0.4577E+03
      6.327  0.4562E+01  0.4610E+03
      6.421  0.3134E+01  0.4644E+03
      6.516  0.3356E+01  0.4687E+03
      6.610  0.4701E+01  0.4741E+03
      6.705  0.3134E+01  0.4779E+03
      6.800  0.1602E+01  0.4813E+03
      6.894  0.7822E-03  0.4849E+03
      6.989  0.2792E+01  0.4884E+03
      7.083  0.0000E+00  0.4927E+03
      7.178  0.7825E+01  0.4977E+03
      7.272  0.0000E+00  0.5005E+03
      7.367  0.6318E+01  0.5051E+03
      7.461  0.0000E+00  0.5092E+03
      7.556  0.1567E+01  0.5116E+03
      7.650  0.0000E+00  0.5120E+03
      7.745  0.0000E+00  0.5120E+03
      7.840  0.0000E+00  0.5120E+03
      7.934  0.0000E+00  0.5120E+03
      8.029  0.0000E+00  0.5120E+03
      8.123  0.0000E+00  0.5120E+03
      8.218  0.0000E+00  0.5120E+03
      8.312  0.0000E+00  0.5120E+03
      8.407  0.0000E+00  0.5120E+03
      8.501  0.0000E+00  0.5120E+03
      8.596  0.0000E+00  0.5120E+03
      8.690  0.0000E+00  0.5120E+03
      8.785  0.0000E+00  0.5120E+03
      8.880  0.0000E+00  0.5120E+03
