 running on   24 total cores
 distrk:  each k-point on   24 cores,    1 groups
 distr:  one band on    3 cores,    8 groups
 using from now: INCAR     
 vasp.5.4.1 24Jun15 (build Nov 25 2015 16:01:35) complex                        
  
 POSCAR found type information on POSCAR  C  N  H  Pb I 
 POSCAR found :  5 types and      96 ions
 scaLAPACK will be used

 ----------------------------------------------------------------------------- 
|                                                                             |
|  ADVICE TO THIS USER RUNNING 'VASP/VAMP'   (HEAR YOUR MASTER'S VOICE ...):  |
|                                                                             |
|      You have a (more or less) 'large supercell' and for larger cells       |
|      it might be more efficient to use real space projection opertators     |
|      So try LREAL= Auto  in the INCAR   file.                               |
|      Mind: At the moment your POTCAR file does not contain real space       |
|       projectors, and has to be modified,  BUT if you                       |
|      want to do an extremely  accurate calculation you might also keep the  |
|      reciprocal projection scheme          (i.e. LREAL=.FALSE.)             |
|                                                                             |
 ----------------------------------------------------------------------------- 


 ----------------------------------------------------------------------------- 
|                                                                             |
|  ADVICE TO THIS USER RUNNING 'VASP/VAMP'   (HEAR YOUR MASTER'S VOICE ...):  |
|                                                                             |
|      You enforced a specific xc-type in the INCAR file,                     |
|      a different type was found on the POTCAR file                          |
|          I HOPE YOU KNOW, WHAT YOU ARE  DOING                               |
|                                                                             |
 ----------------------------------------------------------------------------- 

 LDA part: xc-table for Pade appr. of Perdew
 POSCAR, INCAR and KPOINTS ok, starting setup
 WARNING: small aliasing (wrap around) errors must be expected
 FFT: planning ...
 WAVECAR not read
 entering main loop
       N       E                     dE             d eps       ncg     rms          rms(c)
DAV:   1     0.359750104074E+04    0.35975E+04   -0.18944E+05  7176   0.170E+03
DAV:   2     0.195655999964E+03   -0.34018E+04   -0.32092E+04  8032   0.354E+02
DAV:   3    -0.398126978585E+03   -0.59378E+03   -0.58536E+03  9416   0.171E+02
DAV:   4    -0.438365134192E+03   -0.40238E+02   -0.40064E+02  9624   0.491E+01
DAV:   5    -0.439919572097E+03   -0.15544E+01   -0.15521E+01  9784   0.934E+00    0.295E+01
DAV:   6    -0.419528853094E+03    0.20391E+02   -0.41212E+01  9568   0.103E+01    0.156E+01
DAV:   7    -0.417065258759E+03    0.24636E+01   -0.14581E+01 10256   0.639E+00    0.777E+00
DAV:   8    -0.416892839999E+03    0.17242E+00   -0.30585E+00  8552   0.319E+00    0.182E+00
DAV:   9    -0.416821534036E+03    0.71306E-01   -0.74015E-01  9376   0.174E+00    0.726E-01
DAV:  10    -0.416833549263E+03   -0.12015E-01   -0.11142E-01  9032   0.592E-01    0.467E-01
DAV:  11    -0.416833175414E+03    0.37385E-03   -0.13656E-02  9776   0.273E-01    0.206E-01
DAV:  12    -0.416834584777E+03   -0.14094E-02   -0.98480E-03  9848   0.159E-01    0.109E-01
DAV:  13    -0.416834727691E+03   -0.14291E-03   -0.14328E-03  8384   0.802E-02    0.756E-02
DAV:  14    -0.416834772619E+03   -0.44928E-04   -0.27694E-04  8616   0.293E-02    0.359E-02
DAV:  15    -0.416834817566E+03   -0.44947E-04   -0.18837E-04  8248   0.226E-02    0.130E-02
DAV:  16    -0.416834821997E+03   -0.44309E-05   -0.18389E-05 10288   0.850E-03    0.136E-02
DAV:  17    -0.416834821833E+03    0.16363E-06   -0.33981E-06  7944   0.339E-03    0.677E-03
DAV:  18    -0.416834821789E+03    0.44321E-07   -0.10503E-05  8992   0.515E-03    0.351E-03
DAV:  19    -0.416834821858E+03   -0.69045E-07   -0.10760E-06  8168   0.234E-03    0.291E-03
DAV:  20    -0.416834821852E+03    0.62282E-08   -0.45189E-07  8224   0.110E-03    0.543E-04
DAV:  21    -0.416834821906E+03   -0.54126E-07   -0.71046E-08  7240   0.533E-04    0.337E-04
DAV:  22    -0.416834821894E+03    0.11853E-07   -0.33810E-09  4896   0.229E-04    0.233E-04
DAV:  23    -0.416834821892E+03    0.19718E-08   -0.17439E-10  4520   0.169E-04
   1 F= -.41683482E+03 E0= -.41683482E+03  d E =-.147338-164
Application 22054458 resources: utime ~171818s, stime ~91s, Rss ~640448, inblocks ~184891, outblocks ~194557
