       N       E                     dE             d eps       ncg     rms          rms(c)
DAV:   1     0.359869418279E+04    0.35987E+04   -0.18945E+05  7176   0.170E+03
DAV:   2     0.197225210394E+03   -0.34015E+04   -0.32107E+04  8016   0.354E+02
DAV:   3    -0.398267567589E+03   -0.59549E+03   -0.58700E+03  9448   0.171E+02
DAV:   4    -0.438479966449E+03   -0.40212E+02   -0.40041E+02  9624   0.490E+01
DAV:   5    -0.439993292407E+03   -0.15133E+01   -0.15111E+01  9776   0.923E+00    0.296E+01
DAV:   6    -0.419540190032E+03    0.20453E+02   -0.41382E+01  9512   0.103E+01    0.156E+01
DAV:   7    -0.417070944393E+03    0.24692E+01   -0.14554E+01 10256   0.638E+00    0.778E+00
DAV:   8    -0.416898458663E+03    0.17249E+00   -0.30457E+00  8568   0.319E+00    0.181E+00
DAV:   9    -0.416827711017E+03    0.70748E-01   -0.74048E-01  9368   0.174E+00    0.728E-01
DAV:  10    -0.416839662664E+03   -0.11952E-01   -0.11045E-01  8976   0.590E-01    0.464E-01
DAV:  11    -0.416839339340E+03    0.32332E-03   -0.13495E-02  9864   0.272E-01    0.204E-01
DAV:  12    -0.416840750904E+03   -0.14116E-02   -0.97633E-03  9880   0.158E-01    0.109E-01
DAV:  13    -0.416840886917E+03   -0.13601E-03   -0.14216E-03  8376   0.786E-02    0.752E-02
DAV:  14    -0.416840931304E+03   -0.44386E-04   -0.28026E-04  8680   0.294E-02    0.349E-02
DAV:  15    -0.416840975655E+03   -0.44351E-04   -0.17610E-04  8240   0.219E-02    0.123E-02
DAV:  16    -0.416840980161E+03   -0.45063E-05   -0.17748E-05 10592   0.823E-03    0.131E-02
DAV:  17    -0.416840980066E+03    0.95362E-07   -0.36188E-06  8288   0.340E-03    0.633E-03
DAV:  18    -0.416840980061E+03    0.47476E-08   -0.10271E-05 10120   0.507E-03    0.367E-03
DAV:  19    -0.416840980088E+03   -0.27005E-07   -0.10402E-06  8704   0.235E-03    0.272E-03
DAV:  20    -0.416840980092E+03   -0.37471E-08   -0.54615E-07  9336   0.115E-03    0.427E-04
DAV:  21    -0.416840980137E+03   -0.45176E-07   -0.57572E-08  8704   0.536E-04    0.309E-04
DAV:  22    -0.416840980129E+03    0.85020E-08   -0.38063E-09  8080   0.180E-04    0.242E-04
DAV:  23    -0.416840980132E+03   -0.31650E-08   -0.92586E-10  8672   0.116E-04    0.233E-04
DAV:  24    -0.416840980130E+03    0.13533E-08    0.12586E-09  7328   0.688E-05    0.209E-04
DAV:  25    -0.416840980128E+03    0.20882E-08    0.17412E-09  6560   0.484E-05    0.220E-04
DAV:  26    -0.416840980130E+03   -0.14152E-08    0.18352E-09  5056   0.377E-05    0.210E-04
DAV:  27    -0.416840980132E+03   -0.21173E-08    0.20227E-09  5264   0.324E-05    0.207E-04
DAV:  28    -0.416840980132E+03   -0.11642E-09    0.21435E-09  4256   0.197E-05    0.207E-04
DAV:  29    -0.416840980132E+03   -0.43656E-10    0.17568E-09  4256   0.101E-05    0.207E-04
DAV:  30    -0.416840980132E+03    0.17462E-09    0.18416E-09  4256   0.807E-06    0.207E-04
DAV:  31    -0.416840980132E+03    0.47294E-10    0.18212E-09  4216   0.670E-06    0.206E-04
DAV:  32    -0.416840980131E+03    0.28740E-09    0.13859E-09  4208   0.573E-06    0.206E-04
DAV:  33    -0.416840980132E+03   -0.21828E-09    0.15966E-09  4192   0.369E-06    0.206E-04
DAV:  34    -0.416840980132E+03    0.61846E-10    0.13427E-09  4168   0.213E-06    0.206E-04
DAV:  35    -0.416840980132E+03   -0.72760E-11    0.10068E-09  4160   0.176E-06    0.206E-04
DAV:  36    -0.416840980132E+03   -0.69122E-10    0.83310E-10  4160   0.173E-06
   1 F= -.41684098E+03 E0= -.41684098E+03  d E =0.000000E+00
