  96  96   0   0
  0.2080188E+02  0.1257760E-08  0.1245754E-08  0.1274818E-08  0.5000000E-15
  1.000000000000000E-004
  CAR 
 MAPbI3-Cubic                            
      8.90090402    -19.59771374  301      1.44376571      1.00000000
    -19.598  0.0000E+00  0.0000E+00
    -19.503  0.0000E+00  0.0000E+00
    -19.408  0.0000E+00  0.0000E+00
    -19.313  0.0000E+00  0.0000E+00
    -19.218  0.0000E+00  0.0000E+00
    -19.123  0.0000E+00  0.0000E+00
    -19.028  0.0000E+00  0.0000E+00
    -18.933  0.0000E+00  0.0000E+00
    -18.838  0.0000E+00  0.0000E+00
    -18.743  0.0000E+00  0.0000E+00
    -18.648  0.0000E+00  0.0000E+00
    -18.553  0.0000E+00  0.0000E+00
    -18.458  0.0000E+00  0.0000E+00
    -18.363  0.0000E+00  0.0000E+00
    -18.268  0.0000E+00  0.1600E+02
    -18.173  0.0000E+00  0.1600E+02
    -18.078  0.0000E+00  0.1600E+02
    -17.983  0.0000E+00  0.1600E+02
    -17.888  0.0000E+00  0.1600E+02
    -17.793  0.0000E+00  0.1600E+02
    -17.698  0.0000E+00  0.1600E+02
    -17.603  0.0000E+00  0.1600E+02
    -17.508  0.0000E+00  0.1600E+02
    -17.413  0.0000E+00  0.1600E+02
    -17.318  0.0000E+00  0.1600E+02
    -17.223  0.0000E+00  0.1600E+02
    -17.128  0.0000E+00  0.1600E+02
    -17.033  0.0000E+00  0.1600E+02
    -16.938  0.0000E+00  0.1600E+02
    -16.843  0.0000E+00  0.1600E+02
    -16.748  0.0000E+00  0.1600E+02
    -16.653  0.0000E+00  0.1600E+02
    -16.558  0.0000E+00  0.1600E+02
    -16.463  0.0000E+00  0.1600E+02
    -16.368  0.0000E+00  0.1600E+02
    -16.273  0.0000E+00  0.1600E+02
    -16.178  0.0000E+00  0.1600E+02
    -16.083  0.0000E+00  0.1600E+02
    -15.988  0.0000E+00  0.1600E+02
    -15.893  0.0000E+00  0.1600E+02
    -15.798  0.0000E+00  0.1600E+02
    -15.703  0.0000E+00  0.1600E+02
    -15.608  0.0000E+00  0.1600E+02
    -15.513  0.0000E+00  0.1600E+02
    -15.418  0.0000E+00  0.1600E+02
    -15.323  0.0000E+00  0.1600E+02
    -15.228  0.0000E+00  0.1600E+02
    -15.133  0.0000E+00  0.1600E+02
    -15.038  0.2694E-11  0.4800E+02
    -14.943  0.0000E+00  0.9600E+02
    -14.848  0.0000E+00  0.9600E+02
    -14.753  0.0000E+00  0.9600E+02
    -14.658  0.0000E+00  0.9600E+02
    -14.563  0.0000E+00  0.9600E+02
    -14.468  0.0000E+00  0.9600E+02
    -14.373  0.0000E+00  0.9600E+02
    -14.278  0.0000E+00  0.9600E+02
    -14.183  0.0000E+00  0.9600E+02
    -14.088  0.0000E+00  0.9600E+02
    -13.993  0.0000E+00  0.9600E+02
    -13.898  0.0000E+00  0.9600E+02
    -13.803  0.0000E+00  0.9600E+02
    -13.708  0.0000E+00  0.9600E+02
    -13.613  0.0000E+00  0.9600E+02
    -13.518  0.0000E+00  0.9600E+02
    -13.423  0.0000E+00  0.9600E+02
    -13.328  0.0000E+00  0.9600E+02
    -13.233  0.0000E+00  0.9600E+02
    -13.138  0.0000E+00  0.9600E+02
    -13.043  0.0000E+00  0.9600E+02
    -12.948  0.0000E+00  0.9600E+02
    -12.853  0.0000E+00  0.9600E+02
    -12.758  0.0000E+00  0.9600E+02
    -12.663  0.0000E+00  0.9600E+02
    -12.568  0.0000E+00  0.9600E+02
    -12.473  0.0000E+00  0.9600E+02
    -12.378  0.0000E+00  0.9600E+02
    -12.283  0.0000E+00  0.9600E+02
    -12.188  0.0000E+00  0.9600E+02
    -12.093  0.0000E+00  0.9600E+02
    -11.998  0.0000E+00  0.9600E+02
    -11.903  0.0000E+00  0.9600E+02
    -11.808  0.0000E+00  0.9600E+02
    -11.713  0.0000E+00  0.9600E+02
    -11.618  0.0000E+00  0.9600E+02
    -11.523  0.0000E+00  0.9600E+02
    -11.428  0.0000E+00  0.9600E+02
    -11.333  0.4190E+01  0.1044E+03
    -11.238  0.0000E+00  0.1120E+03
    -11.143  0.0000E+00  0.1120E+03
    -11.048  0.0000E+00  0.1120E+03
    -10.953  0.0000E+00  0.1120E+03
    -10.858  0.0000E+00  0.1120E+03
    -10.763  0.4679E+01  0.1133E+03
    -10.668  0.4678E+01  0.1156E+03
    -10.573  0.5948E+01  0.1215E+03
    -10.478  0.6037E+01  0.1275E+03
    -10.383  0.0000E+00  0.1291E+03
    -10.288  0.6238E+01  0.1366E+03
    -10.193  0.6264E+01  0.1415E+03
    -10.098  0.0000E+00  0.1442E+03
    -10.003  0.7798E+01  0.1541E+03
     -9.908  0.1560E+01  0.1596E+03
     -9.813  0.0000E+00  0.1600E+03
     -9.718  0.0000E+00  0.1600E+03
     -9.623  0.0000E+00  0.1600E+03
     -9.528  0.0000E+00  0.1600E+03
     -9.433  0.0000E+00  0.1600E+03
     -9.338  0.0000E+00  0.1600E+03
     -9.243  0.0000E+00  0.1600E+03
     -9.148  0.0000E+00  0.1600E+03
     -9.053  0.0000E+00  0.1600E+03
     -8.958  0.0000E+00  0.1600E+03
     -8.863  0.0000E+00  0.1600E+03
     -8.768  0.0000E+00  0.1600E+03
     -8.673  0.0000E+00  0.1600E+03
     -8.578  0.0000E+00  0.1600E+03
     -8.483  0.0000E+00  0.1600E+03
     -8.388  0.0000E+00  0.1600E+03
     -8.293  0.0000E+00  0.1600E+03
     -8.198  0.0000E+00  0.1600E+03
     -8.103  0.0000E+00  0.1600E+03
     -8.008  0.0000E+00  0.1600E+03
     -7.913  0.0000E+00  0.1600E+03
     -7.818  0.0000E+00  0.1600E+03
     -7.723  0.3153E+02  0.1722E+03
     -7.628  0.0000E+00  0.1920E+03
     -7.533  0.0000E+00  0.1920E+03
     -7.438  0.0000E+00  0.1920E+03
     -7.343  0.0000E+00  0.1920E+03
     -7.248  0.0000E+00  0.1920E+03
     -7.153  0.0000E+00  0.1920E+03
     -7.058  0.3242E-02  0.1920E+03
     -6.963  0.0000E+00  0.1921E+03
     -6.868  0.0000E+00  0.1925E+03
     -6.773  0.0000E+00  0.1934E+03
     -6.678  0.2888E+01  0.1940E+03
     -6.583  0.0000E+00  0.1944E+03
     -6.488  0.3119E+01  0.1963E+03
     -6.393  0.3118E+01  0.1982E+03
     -6.298  0.4926E-07  0.1991E+03
     -6.203  0.0000E+00  0.2009E+03
     -6.108  0.0000E+00  0.2031E+03
     -6.013  0.9490E-12  0.2044E+03
     -5.918  0.3119E+01  0.2061E+03
     -5.823  0.1687E+02  0.2120E+03
     -5.728  0.0000E+00  0.2226E+03
     -5.633  0.0000E+00  0.2235E+03
     -5.538  0.1560E+01  0.2238E+03
     -5.443  0.0000E+00  0.2239E+03
     -5.348  0.0000E+00  0.2240E+03
     -5.253  0.0000E+00  0.2240E+03
     -5.158  0.0000E+00  0.2240E+03
     -5.063  0.0000E+00  0.2240E+03
     -4.968  0.0000E+00  0.2240E+03
     -4.873  0.0000E+00  0.2240E+03
     -4.778  0.0000E+00  0.2240E+03
     -4.683  0.0000E+00  0.2240E+03
     -4.588  0.0000E+00  0.2240E+03
     -4.493  0.0000E+00  0.2240E+03
     -4.398  0.0000E+00  0.2240E+03
     -4.303  0.0000E+00  0.2240E+03
     -4.208  0.0000E+00  0.2240E+03
     -4.113  0.0000E+00  0.2240E+03
     -4.018  0.0000E+00  0.2240E+03
     -3.923  0.0000E+00  0.2240E+03
     -3.828  0.0000E+00  0.2240E+03
     -3.733  0.0000E+00  0.2240E+03
     -3.638  0.0000E+00  0.2240E+03
     -3.543  0.3118E+02  0.2416E+03
     -3.448  0.0000E+00  0.2560E+03
     -3.354  0.0000E+00  0.2560E+03
     -3.259  0.0000E+00  0.2560E+03
     -3.164  0.0000E+00  0.2560E+03
     -3.069  0.0000E+00  0.2560E+03
     -2.974  0.0000E+00  0.2560E+03
     -2.879  0.0000E+00  0.2560E+03
     -2.784  0.0000E+00  0.2560E+03
     -2.689  0.0000E+00  0.2560E+03
     -2.594  0.0000E+00  0.2560E+03
     -2.499  0.0000E+00  0.2560E+03
     -2.404  0.0000E+00  0.2560E+03
     -2.309  0.0000E+00  0.2560E+03
     -2.214  0.0000E+00  0.2560E+03
     -2.119  0.5582E+00  0.2561E+03
     -2.024  0.1565E+01  0.2584E+03
     -1.929  0.1585E+01  0.2615E+03
     -1.834  0.1262E+00  0.2635E+03
     -1.739  0.1022E-12  0.2659E+03
     -1.644  0.1014E+01  0.2685E+03
     -1.549  0.0000E+00  0.2724E+03
     -1.454  0.2640E-03  0.2756E+03
     -1.359  0.0000E+00  0.2787E+03
     -1.264  0.0000E+00  0.2796E+03
     -1.169  0.0000E+00  0.2800E+03
     -1.074  0.0000E+00  0.2800E+03
     -0.979  0.3110E+01  0.2810E+03
     -0.884  0.3119E+01  0.2850E+03
     -0.789  0.5669E+01  0.2916E+03
     -0.694  0.1092E+02  0.2971E+03
     -0.599  0.2580E+01  0.3024E+03
     -0.504  0.3119E+01  0.3057E+03
     -0.409  0.7011E+01  0.3091E+03
     -0.314  0.3899E+01  0.3141E+03
     -0.219  0.1608E+01  0.3201E+03
     -0.124  0.2723E+01  0.3273E+03
     -0.029  0.7502E+01  0.3335E+03
      0.066  0.6811E+01  0.3394E+03
      0.161  0.1136E+01  0.3476E+03
      0.256  0.5361E+01  0.3565E+03
      0.351  0.5622E+01  0.3632E+03
      0.446  0.6163E+01  0.3708E+03
      0.541  0.1248E+02  0.3810E+03
      0.636  0.1560E+01  0.3861E+03
      0.731  0.8979E+01  0.3923E+03
      0.826  0.1657E+01  0.3957E+03
      0.921  0.0000E+00  0.3975E+03
      1.016  0.1560E+01  0.3988E+03
      1.111  0.0000E+00  0.3993E+03
      1.206  0.3217E-05  0.3996E+03
      1.301  0.0000E+00  0.3999E+03
      1.396  0.3594E-07  0.3999E+03
      1.491  0.0000E+00  0.4000E+03
      1.586  0.0000E+00  0.4000E+03
      1.681  0.0000E+00  0.4000E+03
      1.776  0.0000E+00  0.4000E+03
      1.871  0.0000E+00  0.4000E+03
      1.966  0.0000E+00  0.4000E+03
      2.061  0.0000E+00  0.4000E+03
      2.156  0.0000E+00  0.4000E+03
      2.251  0.0000E+00  0.4000E+03
      2.346  0.0000E+00  0.4000E+03
      2.441  0.0000E+00  0.4000E+03
      2.536  0.0000E+00  0.4000E+03
      2.631  0.0000E+00  0.4000E+03
      2.726  0.0000E+00  0.4000E+03
      2.821  0.0000E+00  0.4000E+03
      2.916  0.0000E+00  0.4000E+03
      3.011  0.3119E+01  0.4005E+03
      3.106  0.0000E+00  0.4007E+03
      3.201  0.6875E+00  0.4014E+03
      3.296  0.0000E+00  0.4029E+03
      3.391  0.1560E+01  0.4038E+03
      3.486  0.1529E-04  0.4056E+03
      3.581  0.7798E+00  0.4067E+03
      3.676  0.0000E+00  0.4077E+03
      3.771  0.0000E+00  0.4083E+03
      3.866  0.4468E-01  0.4090E+03
      3.961  0.3119E+01  0.4099E+03
      4.056  0.3435E-05  0.4108E+03
      4.151  0.1215E+01  0.4132E+03
      4.246  0.5201E-03  0.4150E+03
      4.341  0.3119E+01  0.4169E+03
      4.436  0.8893E-07  0.4196E+03
      4.531  0.0000E+00  0.4227E+03
      4.626  0.1581E-01  0.4236E+03
      4.721  0.0000E+00  0.4239E+03
      4.816  0.0000E+00  0.4240E+03
      4.911  0.0000E+00  0.4240E+03
      5.006  0.0000E+00  0.4241E+03
      5.101  0.1560E+01  0.4242E+03
      5.196  0.0000E+00  0.4245E+03
      5.291  0.0000E+00  0.4260E+03
      5.386  0.3712E+01  0.4284E+03
      5.481  0.4871E-01  0.4308E+03
      5.576  0.6142E+01  0.4355E+03
      5.671  0.1560E+01  0.4381E+03
      5.766  0.9357E+01  0.4408E+03
      5.861  0.2059E-04  0.4421E+03
      5.956  0.0000E+00  0.4454E+03
      6.051  0.1560E+01  0.4487E+03
      6.146  0.1623E+01  0.4522E+03
      6.241  0.2783E+01  0.4581E+03
      6.336  0.7784E+01  0.4612E+03
      6.431  0.2893E+01  0.4638E+03
      6.526  0.7798E+01  0.4701E+03
      6.621  0.8449E-09  0.4744E+03
      6.716  0.4663E+01  0.4788E+03
      6.811  0.3119E+01  0.4816E+03
      6.906  0.3267E-03  0.4850E+03
      7.001  0.0000E+00  0.4897E+03
      7.096  0.0000E+00  0.4933E+03
      7.191  0.1560E+01  0.4981E+03
      7.286  0.7898E+01  0.5021E+03
      7.381  0.6230E+01  0.5056E+03
      7.476  0.3119E+01  0.5094E+03
      7.571  0.3119E+01  0.5119E+03
      7.666  0.0000E+00  0.5120E+03
      7.761  0.0000E+00  0.5120E+03
      7.856  0.0000E+00  0.5120E+03
      7.951  0.0000E+00  0.5120E+03
      8.046  0.0000E+00  0.5120E+03
      8.141  0.0000E+00  0.5120E+03
      8.236  0.0000E+00  0.5120E+03
      8.331  0.0000E+00  0.5120E+03
      8.426  0.0000E+00  0.5120E+03
      8.521  0.0000E+00  0.5120E+03
      8.616  0.0000E+00  0.5120E+03
      8.711  0.0000E+00  0.5120E+03
      8.806  0.0000E+00  0.5120E+03
      8.901  0.0000E+00  0.5120E+03
