       N       E                     dE             d eps       ncg     rms          rms(c)
DAV:   1     0.360291991092E+04    0.36029E+04   -0.18949E+05  7176   0.170E+03
DAV:   2     0.198793739232E+03   -0.34041E+04   -0.32092E+04  8000   0.355E+02
DAV:   3    -0.398889758300E+03   -0.59768E+03   -0.58908E+03  9488   0.172E+02
DAV:   4    -0.438716408485E+03   -0.39827E+02   -0.39656E+02  9584   0.488E+01
DAV:   5    -0.440208426148E+03   -0.14920E+01   -0.14899E+01  9752   0.918E+00    0.298E+01
DAV:   6    -0.419542100347E+03    0.20666E+02   -0.41786E+01  9440   0.103E+01    0.157E+01
DAV:   7    -0.417057490911E+03    0.24846E+01   -0.14657E+01 10208   0.638E+00    0.782E+00
DAV:   8    -0.416886820402E+03    0.17067E+00   -0.30318E+00  8584   0.317E+00    0.182E+00
DAV:   9    -0.416816136200E+03    0.70684E-01   -0.74580E-01  9424   0.174E+00    0.734E-01
DAV:  10    -0.416827705722E+03   -0.11570E-01   -0.10587E-01  8976   0.580E-01    0.443E-01
DAV:  11    -0.416827774786E+03   -0.69064E-04   -0.12352E-02  9888   0.263E-01    0.199E-01
DAV:  12    -0.416829161118E+03   -0.13863E-02   -0.97772E-03  9776   0.157E-01    0.112E-01
DAV:  13    -0.416829256884E+03   -0.95766E-04   -0.14915E-03  8496   0.806E-02    0.726E-02
DAV:  14    -0.416829302611E+03   -0.45726E-04   -0.27855E-04  8536   0.290E-02    0.323E-02
DAV:  15    -0.416829346289E+03   -0.43678E-04   -0.16483E-04  8144   0.210E-02    0.119E-02
DAV:  16    -0.416829350777E+03   -0.44881E-05   -0.17688E-05 10384   0.840E-03    0.125E-02
DAV:  17    -0.416829350554E+03    0.22265E-06   -0.49743E-06  8168   0.395E-03    0.539E-03
DAV:  18    -0.416829350493E+03    0.61318E-07   -0.90813E-06 10456   0.470E-03    0.399E-03
DAV:  19    -0.416829350424E+03    0.69074E-07   -0.93236E-07  8384   0.231E-03    0.226E-03
DAV:  20    -0.416829350447E+03   -0.23014E-07   -0.46557E-07  9464   0.107E-03    0.468E-04
DAV:  21    -0.416829350479E+03   -0.31741E-07   -0.40456E-08  8688   0.425E-04    0.429E-04
DAV:  22    -0.416829350472E+03    0.67012E-08   -0.98990E-09  7792   0.236E-04    0.285E-04
DAV:  23    -0.416829350479E+03   -0.68139E-08   -0.43370E-09  9272   0.152E-04    0.251E-04
DAV:  24    -0.416829350478E+03    0.46202E-09    0.56698E-10  7472   0.803E-05    0.227E-04
DAV:  25    -0.416829350476E+03    0.23538E-08    0.20049E-09  6616   0.552E-05    0.220E-04
DAV:  26    -0.416829350475E+03    0.88767E-09    0.22119E-09  5648   0.301E-05    0.218E-04
DAV:  27    -0.416829350477E+03   -0.18226E-08    0.17178E-09  4424   0.257E-05    0.213E-04
DAV:  28    -0.416829350478E+03   -0.89858E-09    0.19340E-09  4272   0.241E-05    0.213E-04
DAV:  29    -0.416829350478E+03    0.18917E-09    0.20114E-09  4232   0.206E-05    0.213E-04
DAV:  30    -0.416829350478E+03    0.29104E-10    0.17073E-09  4224   0.939E-06    0.213E-04
DAV:  31    -0.416829350478E+03   -0.47294E-10    0.13933E-09  4208   0.615E-06    0.213E-04
DAV:  32    -0.416829350478E+03   -0.24374E-09    0.14151E-09  4208   0.443E-06    0.213E-04
DAV:  33    -0.416829350478E+03    0.14916E-09    0.10603E-09  4208   0.355E-06    0.213E-04
DAV:  34    -0.416829350478E+03    0.14188E-09    0.11436E-09  4184   0.260E-06    0.213E-04
DAV:  35    -0.416829350477E+03    0.25466E-09    0.12010E-09  4120   0.237E-06    0.213E-04
DAV:  36    -0.416829350477E+03   -0.47294E-10    0.11926E-09  4096   0.121E-06    0.213E-04
DAV:  37    -0.416829350478E+03   -0.65484E-10    0.11519E-09  4064   0.966E-07    0.213E-04
DAV:  38    -0.416829350478E+03   -0.10550E-09    0.11719E-09  4064   0.643E-07    0.213E-04
DAV:  39    -0.416829350478E+03   -0.76398E-10    0.12008E-09  4056   0.859E-07    0.213E-04
DAV:  40    -0.416829350478E+03   -0.27285E-09    0.11211E-09  4008   0.397E-06    0.213E-04
DAV:  41    -0.416829350478E+03    0.28012E-09    0.10822E-09  3976   0.154E-06    0.213E-04
DAV:  42    -0.416829350478E+03   -0.20009E-09    0.11358E-09  3968   0.161E-06    0.213E-04
DAV:  43    -0.416829350478E+03    0.16007E-09    0.10813E-09  3944   0.168E-06    0.213E-04
DAV:  44    -0.416829350478E+03    0.12369E-09    0.83712E-10  3920   0.148E-06    0.213E-04
DAV:  45    -0.416829350478E+03    0.80036E-10    0.64638E-10  3920   0.690E-07
   1 F= -.41682935E+03 E0= -.41682935E+03  d E =0.000000E+00
