   2   2   1   0
  0.3405476E+02  0.4583961E-09  0.4583961E-09  0.4583961E-09  0.5000000E-15
  1.000000000000000E-004
  CAR 
 Name                                    
     12.31180794     -9.97152135  301      2.30287920      1.00000000
     -9.972  0.0000E+00  0.0000E+00
     -9.897  0.0000E+00  0.0000E+00
     -9.823  0.0000E+00  0.0000E+00
     -9.749  0.0000E+00  0.0000E+00
     -9.674  0.0000E+00  0.0000E+00
     -9.600  0.0000E+00  0.0000E+00
     -9.526  0.0000E+00  0.0000E+00
     -9.452  0.0000E+00  0.0000E+00
     -9.377  0.0000E+00  0.0000E+00
     -9.303  0.0000E+00  0.0000E+00
     -9.229  0.0000E+00  0.0000E+00
     -9.154  0.0000E+00  0.0000E+00
     -9.080  0.0000E+00  0.0000E+00
     -9.006  0.1443E-11  0.1072E-12
     -8.932  0.1246E+00  0.9259E-02
     -8.857  0.2841E+00  0.3037E-01
     -8.783  0.1461E+01  0.1389E+00
     -8.709  0.9877E+00  0.2123E+00
     -8.635  0.3733E+01  0.4895E+00
     -8.560  0.2534E+00  0.5464E+00
     -8.486  0.1012E+02  0.1298E+01
     -8.412  0.7587E+01  0.1869E+01
     -8.337  0.1756E+01  0.2000E+01
     -8.263  0.0000E+00  0.2000E+01
     -8.189  0.0000E+00  0.2000E+01
     -8.115  0.0000E+00  0.2000E+01
     -8.040  0.0000E+00  0.2000E+01
     -7.966  0.0000E+00  0.2000E+01
     -7.892  0.0000E+00  0.2000E+01
     -7.817  0.0000E+00  0.2000E+01
     -7.743  0.0000E+00  0.2000E+01
     -7.669  0.0000E+00  0.2000E+01
     -7.595  0.0000E+00  0.2000E+01
     -7.520  0.0000E+00  0.2000E+01
     -7.446  0.0000E+00  0.2000E+01
     -7.372  0.0000E+00  0.2000E+01
     -7.298  0.0000E+00  0.2000E+01
     -7.223  0.0000E+00  0.2000E+01
     -7.149  0.0000E+00  0.2000E+01
     -7.075  0.0000E+00  0.2000E+01
     -7.000  0.0000E+00  0.2000E+01
     -6.926  0.0000E+00  0.2000E+01
     -6.852  0.0000E+00  0.2000E+01
     -6.778  0.0000E+00  0.2000E+01
     -6.703  0.0000E+00  0.2000E+01
     -6.629  0.0000E+00  0.2000E+01
     -6.555  0.0000E+00  0.2000E+01
     -6.480  0.0000E+00  0.2000E+01
     -6.406  0.0000E+00  0.2000E+01
     -6.332  0.0000E+00  0.2000E+01
     -6.258  0.0000E+00  0.2000E+01
     -6.183  0.0000E+00  0.2000E+01
     -6.109  0.0000E+00  0.2000E+01
     -6.035  0.0000E+00  0.2000E+01
     -5.961  0.0000E+00  0.2000E+01
     -5.886  0.4567E-15  0.2000E+01
     -5.812  0.1202E+01  0.2089E+01
     -5.738  0.2630E+02  0.4043E+01
     -5.663  0.2747E+02  0.6123E+01
     -5.589  0.1351E+02  0.7133E+01
     -5.515  0.4154E+02  0.1024E+02
     -5.441  0.4059E+01  0.1055E+02
     -5.366  0.7477E+00  0.1060E+02
     -5.292  0.8045E+00  0.1066E+02
     -5.218  0.5611E+01  0.1108E+02
     -5.143  0.4132E+01  0.1139E+02
     -5.069  0.5851E+01  0.1182E+02
     -4.995  0.2156E+01  0.1200E+02
     -4.921  0.0000E+00  0.1200E+02
     -4.846  0.0000E+00  0.1200E+02
     -4.772  0.0000E+00  0.1200E+02
     -4.698  0.0000E+00  0.1200E+02
     -4.624  0.0000E+00  0.1200E+02
     -4.549  0.0000E+00  0.1200E+02
     -4.475  0.0000E+00  0.1200E+02
     -4.401  0.0000E+00  0.1200E+02
     -4.326  0.0000E+00  0.1200E+02
     -4.252  0.0000E+00  0.1200E+02
     -4.178  0.0000E+00  0.1200E+02
     -4.104  0.0000E+00  0.1200E+02
     -4.029  0.0000E+00  0.1200E+02
     -3.955  0.0000E+00  0.1200E+02
     -3.881  0.0000E+00  0.1200E+02
     -3.806  0.0000E+00  0.1200E+02
     -3.732  0.0000E+00  0.1200E+02
     -3.658  0.0000E+00  0.1200E+02
     -3.584  0.0000E+00  0.1200E+02
     -3.509  0.0000E+00  0.1200E+02
     -3.435  0.0000E+00  0.1200E+02
     -3.361  0.0000E+00  0.1200E+02
     -3.287  0.0000E+00  0.1200E+02
     -3.212  0.0000E+00  0.1200E+02
     -3.138  0.0000E+00  0.1200E+02
     -3.064  0.0000E+00  0.1200E+02
     -2.989  0.0000E+00  0.1200E+02
     -2.915  0.0000E+00  0.1200E+02
     -2.841  0.0000E+00  0.1200E+02
     -2.767  0.0000E+00  0.1200E+02
     -2.692  0.0000E+00  0.1200E+02
     -2.618  0.0000E+00  0.1200E+02
     -2.544  0.0000E+00  0.1200E+02
     -2.469  0.0000E+00  0.1200E+02
     -2.395  0.0000E+00  0.1200E+02
     -2.321  0.0000E+00  0.1200E+02
     -2.247  0.1686E+00  0.1201E+02
     -2.172  0.3300E+00  0.1204E+02
     -2.098  0.3468E+00  0.1206E+02
     -2.024  0.2470E+01  0.1225E+02
     -1.950  0.5307E+01  0.1264E+02
     -1.875  0.4190E+01  0.1295E+02
     -1.801  0.5984E-10  0.1295E+02
     -1.727  0.2992E+01  0.1318E+02
     -1.652  0.0000E+00  0.1318E+02
     -1.578  0.2034E+01  0.1333E+02
     -1.504  0.9576E+00  0.1340E+02
     -1.430  0.1038E-10  0.1340E+02
     -1.355  0.9972E+00  0.1347E+02
     -1.281  0.8714E-02  0.1347E+02
     -1.207  0.7392E+00  0.1353E+02
     -1.132  0.0000E+00  0.1353E+02
     -1.058  0.0000E+00  0.1353E+02
     -0.984  0.0000E+00  0.1353E+02
     -0.910  0.2586E+01  0.1372E+02
     -0.835  0.0000E+00  0.1375E+02
     -0.761  0.0000E+00  0.1375E+02
     -0.687  0.0000E+00  0.1375E+02
     -0.613  0.0000E+00  0.1375E+02
     -0.538  0.7748E-05  0.1375E+02
     -0.464  0.1496E+01  0.1386E+02
     -0.390  0.1495E+01  0.1397E+02
     -0.315  0.0000E+00  0.1397E+02
     -0.241  0.3322E-15  0.1397E+02
     -0.167  0.2960E+01  0.1419E+02
     -0.093  0.0000E+00  0.1419E+02
     -0.018  0.1654E-01  0.1420E+02
      0.056  0.3841E+01  0.1448E+02
      0.130  0.2693E+01  0.1468E+02
      0.205  0.2425E+01  0.1486E+02
      0.279  0.0000E+00  0.1486E+02
      0.353  0.3791E+00  0.1489E+02
      0.427  0.1487E+01  0.1500E+02
      0.502  0.3618E+01  0.1527E+02
      0.576  0.2683E+01  0.1547E+02
      0.650  0.5935E+01  0.1594E+02
      0.724  0.5536E+00  0.1598E+02
      0.799  0.9423E+00  0.1605E+02
      0.873  0.1746E-05  0.1605E+02
      0.947  0.4488E+01  0.1638E+02
      1.022  0.1496E+01  0.1649E+02
      1.096  0.3985E+00  0.1652E+02
      1.170  0.5585E+01  0.1694E+02
      1.244  0.2990E+01  0.1716E+02
      1.319  0.0000E+00  0.1716E+02
      1.393  0.3699E-11  0.1716E+02
      1.467  0.3498E+01  0.1742E+02
      1.542  0.4905E+00  0.1745E+02
      1.616  0.5072E-02  0.1745E+02
      1.690  0.3485E+01  0.1771E+02
      1.764  0.0000E+00  0.1771E+02
      1.839  0.0000E+00  0.1771E+02
      1.913  0.1369E+01  0.1781E+02
      1.987  0.3179E-07  0.1782E+02
      2.061  0.1995E+01  0.1797E+02
      2.136  0.0000E+00  0.1797E+02
      2.210  0.1444E-12  0.1797E+02
      2.284  0.3738E+00  0.1800E+02
      2.359  0.0000E+00  0.1800E+02
      2.433  0.0000E+00  0.1800E+02
      2.507  0.0000E+00  0.1800E+02
      2.581  0.0000E+00  0.1800E+02
      2.656  0.0000E+00  0.1800E+02
      2.730  0.0000E+00  0.1800E+02
      2.804  0.0000E+00  0.1800E+02
      2.879  0.1637E-02  0.1800E+02
      2.953  0.1230E+00  0.1801E+02
      3.027  0.0000E+00  0.1801E+02
      3.101  0.0000E+00  0.1801E+02
      3.176  0.0000E+00  0.1801E+02
      3.250  0.0000E+00  0.1801E+02
      3.324  0.0000E+00  0.1801E+02
      3.398  0.0000E+00  0.1801E+02
      3.473  0.0000E+00  0.1801E+02
      3.547  0.0000E+00  0.1801E+02
      3.621  0.0000E+00  0.1801E+02
      3.696  0.0000E+00  0.1801E+02
      3.770  0.0000E+00  0.1801E+02
      3.844  0.0000E+00  0.1801E+02
      3.918  0.5253E-09  0.1801E+02
      3.993  0.4996E+00  0.1805E+02
      4.067  0.1220E+01  0.1814E+02
      4.141  0.7735E+00  0.1819E+02
      4.216  0.0000E+00  0.1819E+02
      4.290  0.0000E+00  0.1819E+02
      4.364  0.0000E+00  0.1819E+02
      4.438  0.0000E+00  0.1819E+02
      4.513  0.0000E+00  0.1819E+02
      4.587  0.0000E+00  0.1819E+02
      4.661  0.1192E-01  0.1820E+02
      4.735  0.1110E+01  0.1828E+02
      4.810  0.1651E-02  0.1828E+02
      4.884  0.2600E+01  0.1847E+02
      4.958  0.3867E+01  0.1876E+02
      5.033  0.5763E+01  0.1919E+02
      5.107  0.2316E+01  0.1936E+02
      5.181  0.4185E-01  0.1936E+02
      5.255  0.1454E+01  0.1947E+02
      5.330  0.7479E+00  0.1953E+02
      5.404  0.0000E+00  0.1953E+02
      5.478  0.0000E+00  0.1953E+02
      5.553  0.0000E+00  0.1953E+02
      5.627  0.0000E+00  0.1953E+02
      5.701  0.7806E-14  0.1953E+02
      5.775  0.2981E+01  0.1975E+02
      5.850  0.8149E+00  0.1981E+02
      5.924  0.8792E+01  0.2047E+02
      5.998  0.0000E+00  0.2047E+02
      6.072  0.0000E+00  0.2047E+02
      6.147  0.2367E-08  0.2047E+02
      6.221  0.2992E+01  0.2069E+02
      6.295  0.2982E+01  0.2092E+02
      6.370  0.0000E+00  0.2092E+02
      6.444  0.0000E+00  0.2092E+02
      6.518  0.0000E+00  0.2092E+02
      6.592  0.0000E+00  0.2092E+02
      6.667  0.0000E+00  0.2092E+02
      6.741  0.1965E-01  0.2092E+02
      6.815  0.3346E+01  0.2117E+02
      6.890  0.5483E+01  0.2157E+02
      6.964  0.0000E+00  0.2157E+02
      7.038  0.7056E-11  0.2157E+02
      7.112  0.4391E+01  0.2190E+02
      7.187  0.5943E+00  0.2194E+02
      7.261  0.6904E-03  0.2194E+02
      7.335  0.1912E+01  0.2209E+02
      7.409  0.4060E+01  0.2239E+02
      7.484  0.2992E+01  0.2261E+02
      7.558  0.0000E+00  0.2261E+02
      7.632  0.3541E-01  0.2261E+02
      7.707  0.1464E+01  0.2272E+02
      7.781  0.1494E+01  0.2283E+02
      7.855  0.4114E+01  0.2314E+02
      7.929  0.4851E+01  0.2350E+02
      8.004  0.0000E+00  0.2350E+02
      8.078  0.2082E-04  0.2350E+02
      8.152  0.2992E+01  0.2372E+02
      8.227  0.0000E+00  0.2372E+02
      8.301  0.2518E+01  0.2391E+02
      8.375  0.5121E-01  0.2395E+02
      8.449  0.9460E+00  0.2402E+02
      8.524  0.2992E+01  0.2424E+02
      8.598  0.0000E+00  0.2424E+02
      8.672  0.1008E-11  0.2424E+02
      8.746  0.2990E+01  0.2446E+02
      8.821  0.4261E-01  0.2447E+02
      8.895  0.1453E+01  0.2457E+02
      8.969  0.1493E-11  0.2457E+02
      9.044  0.1495E+01  0.2469E+02
      9.118  0.1605E+01  0.2480E+02
      9.192  0.4674E+01  0.2517E+02
      9.266  0.0000E+00  0.2517E+02
      9.341  0.0000E+00  0.2517E+02
      9.415  0.5879E+00  0.2521E+02
      9.489  0.3140E+01  0.2544E+02
      9.564  0.6179E-01  0.2545E+02
      9.638  0.2930E+01  0.2567E+02
      9.712  0.7479E+00  0.2572E+02
      9.786  0.0000E+00  0.2572E+02
      9.861  0.1135E+00  0.2573E+02
      9.935  0.2878E+01  0.2594E+02
     10.009  0.0000E+00  0.2594E+02
     10.083  0.0000E+00  0.2594E+02
     10.158  0.0000E+00  0.2594E+02
     10.232  0.0000E+00  0.2594E+02
     10.306  0.0000E+00  0.2594E+02
     10.381  0.0000E+00  0.2594E+02
     10.455  0.0000E+00  0.2594E+02
     10.529  0.0000E+00  0.2594E+02
     10.603  0.0000E+00  0.2594E+02
     10.678  0.0000E+00  0.2594E+02
     10.752  0.0000E+00  0.2594E+02
     10.826  0.0000E+00  0.2594E+02
     10.901  0.1080E-11  0.2594E+02
     10.975  0.3739E+00  0.2597E+02
     11.049  0.0000E+00  0.2597E+02
     11.123  0.0000E+00  0.2597E+02
     11.198  0.0000E+00  0.2597E+02
     11.272  0.2497E-04  0.2597E+02
     11.346  0.3739E+00  0.2600E+02
     11.420  0.0000E+00  0.2600E+02
     11.495  0.0000E+00  0.2600E+02
     11.569  0.0000E+00  0.2600E+02
     11.643  0.0000E+00  0.2600E+02
     11.718  0.0000E+00  0.2600E+02
     11.792  0.0000E+00  0.2600E+02
     11.866  0.0000E+00  0.2600E+02
     11.940  0.0000E+00  0.2600E+02
     12.015  0.0000E+00  0.2600E+02
     12.089  0.0000E+00  0.2600E+02
     12.163  0.0000E+00  0.2600E+02
     12.238  0.0000E+00  0.2600E+02
     12.312  0.0000E+00  0.2600E+02
     12.31180794     -9.97152135  301      2.30287920      1.00000000
     -9.972  0.0000E+00  0.0000E+00  0.0000E+00
     -9.897  0.0000E+00  0.0000E+00  0.0000E+00
     -9.823  0.0000E+00  0.0000E+00  0.0000E+00
     -9.749  0.0000E+00  0.0000E+00  0.0000E+00
     -9.674  0.0000E+00  0.0000E+00  0.0000E+00
     -9.600  0.0000E+00  0.0000E+00  0.0000E+00
     -9.526  0.0000E+00  0.0000E+00  0.0000E+00
     -9.452  0.0000E+00  0.0000E+00  0.0000E+00
     -9.377  0.0000E+00  0.0000E+00  0.0000E+00
     -9.303  0.0000E+00  0.0000E+00  0.0000E+00
     -9.229  0.0000E+00  0.0000E+00  0.0000E+00
     -9.154  0.0000E+00  0.0000E+00  0.0000E+00
     -9.080  0.0000E+00  0.0000E+00  0.0000E+00
     -9.006  0.9114E-13  0.1109E-23  0.1182E-23
     -8.932  0.7874E-02  0.9578E-13  0.1021E-12
     -8.857  0.1515E-01  0.7149E-03  0.4407E-02
     -8.783  0.7535E-01  0.4329E-02  0.2683E-01
     -8.709  0.3815E-01  0.5909E-02  0.4166E-01
     -8.635  0.1183E+00  0.2801E-01  0.2100E+00
     -8.560  0.7675E-02  0.1948E-02  0.1523E-01
     -8.486  0.1535E+00  0.1101E+00  0.9456E+00
     -8.412  0.3364E-01  0.9912E-01  0.9026E+00
     -8.337  0.6268E-13  0.2450E-01  0.2281E+00
     -8.263  0.0000E+00  0.0000E+00  0.0000E+00
     -8.189  0.0000E+00  0.0000E+00  0.0000E+00
     -8.115  0.0000E+00  0.0000E+00  0.0000E+00
     -8.040  0.0000E+00  0.0000E+00  0.0000E+00
     -7.966  0.0000E+00  0.0000E+00  0.0000E+00
     -7.892  0.0000E+00  0.0000E+00  0.0000E+00
     -7.817  0.0000E+00  0.0000E+00  0.0000E+00
     -7.743  0.0000E+00  0.0000E+00  0.0000E+00
     -7.669  0.0000E+00  0.0000E+00  0.0000E+00
     -7.595  0.0000E+00  0.0000E+00  0.0000E+00
     -7.520  0.0000E+00  0.0000E+00  0.0000E+00
     -7.446  0.0000E+00  0.0000E+00  0.0000E+00
     -7.372  0.0000E+00  0.0000E+00  0.0000E+00
     -7.298  0.0000E+00  0.0000E+00  0.0000E+00
     -7.223  0.0000E+00  0.0000E+00  0.0000E+00
     -7.149  0.0000E+00  0.0000E+00  0.0000E+00
     -7.075  0.0000E+00  0.0000E+00  0.0000E+00
     -7.000  0.0000E+00  0.0000E+00  0.0000E+00
     -6.926  0.0000E+00  0.0000E+00  0.0000E+00
     -6.852  0.0000E+00  0.0000E+00  0.0000E+00
     -6.778  0.0000E+00  0.0000E+00  0.0000E+00
     -6.703  0.0000E+00  0.0000E+00  0.0000E+00
     -6.629  0.0000E+00  0.0000E+00  0.0000E+00
     -6.555  0.0000E+00  0.0000E+00  0.0000E+00
     -6.480  0.0000E+00  0.0000E+00  0.0000E+00
     -6.406  0.0000E+00  0.0000E+00  0.0000E+00
     -6.332  0.0000E+00  0.0000E+00  0.0000E+00
     -6.258  0.0000E+00  0.0000E+00  0.0000E+00
     -6.183  0.0000E+00  0.0000E+00  0.0000E+00
     -6.109  0.0000E+00  0.0000E+00  0.0000E+00
     -6.035  0.0000E+00  0.0000E+00  0.0000E+00
     -5.961  0.0000E+00  0.0000E+00  0.0000E+00
     -5.886  0.2479E-31  0.1905E-18  0.4110E-15
     -5.812  0.4007E-11  0.5391E-03  0.1085E+01
     -5.738  0.1232E-01  0.1292E-01  0.2390E+02
     -5.663  0.4752E-02  0.1555E-01  0.2525E+02
     -5.589  0.3300E-01  0.1220E-02  0.1239E+02
     -5.515  0.4944E-02  0.6176E-03  0.3924E+02
     -5.441  0.3545E-01  0.1911E-02  0.3556E+01
     -5.366  0.7888E-02  0.9470E-03  0.6318E+00
     -5.292  0.8413E-02  0.1133E-02  0.6789E+00
     -5.218  0.5683E-01  0.9130E-02  0.4714E+01
     -5.143  0.2821E-01  0.9685E-02  0.3473E+01
     -5.069  0.2388E-01  0.1940E-01  0.4853E+01
     -4.995  0.2541E-02  0.8558E-02  0.1786E+01
     -4.921  0.0000E+00  0.0000E+00  0.0000E+00
     -4.846  0.0000E+00  0.0000E+00  0.0000E+00
     -4.772  0.0000E+00  0.0000E+00  0.0000E+00
     -4.698  0.0000E+00  0.0000E+00  0.0000E+00
     -4.624  0.0000E+00  0.0000E+00  0.0000E+00
     -4.549  0.0000E+00  0.0000E+00  0.0000E+00
     -4.475  0.0000E+00  0.0000E+00  0.0000E+00
     -4.401  0.0000E+00  0.0000E+00  0.0000E+00
     -4.326  0.0000E+00  0.0000E+00  0.0000E+00
     -4.252  0.0000E+00  0.0000E+00  0.0000E+00
     -4.178  0.0000E+00  0.0000E+00  0.0000E+00
     -4.104  0.0000E+00  0.0000E+00  0.0000E+00
     -4.029  0.0000E+00  0.0000E+00  0.0000E+00
     -3.955  0.0000E+00  0.0000E+00  0.0000E+00
     -3.881  0.0000E+00  0.0000E+00  0.0000E+00
     -3.806  0.0000E+00  0.0000E+00  0.0000E+00
     -3.732  0.0000E+00  0.0000E+00  0.0000E+00
     -3.658  0.0000E+00  0.0000E+00  0.0000E+00
     -3.584  0.0000E+00  0.0000E+00  0.0000E+00
     -3.509  0.0000E+00  0.0000E+00  0.0000E+00
     -3.435  0.0000E+00  0.0000E+00  0.0000E+00
     -3.361  0.0000E+00  0.0000E+00  0.0000E+00
     -3.287  0.0000E+00  0.0000E+00  0.0000E+00
     -3.212  0.0000E+00  0.0000E+00  0.0000E+00
     -3.138  0.0000E+00  0.0000E+00  0.0000E+00
     -3.064  0.0000E+00  0.0000E+00  0.0000E+00
     -2.989  0.0000E+00  0.0000E+00  0.0000E+00
     -2.915  0.0000E+00  0.0000E+00  0.0000E+00
     -2.841  0.0000E+00  0.0000E+00  0.0000E+00
     -2.767  0.0000E+00  0.0000E+00  0.0000E+00
     -2.692  0.0000E+00  0.0000E+00  0.0000E+00
     -2.618  0.0000E+00  0.0000E+00  0.0000E+00
     -2.544  0.0000E+00  0.0000E+00  0.0000E+00
     -2.469  0.0000E+00  0.0000E+00  0.0000E+00
     -2.395  0.0000E+00  0.0000E+00  0.0000E+00
     -2.321  0.0000E+00  0.0000E+00  0.0000E+00
     -2.247  0.2799E-01  0.4430E-02  0.1580E-04
     -2.172  0.5476E-01  0.8669E-02  0.3091E-04
     -2.098  0.8514E-01  0.5568E-15  0.1191E-01
     -2.024  0.5060E+00  0.3781E-01  0.3067E-01
     -1.950  0.1198E+01  0.5552E-01  0.5204E-01
     -1.875  0.9928E+00  0.2025E-01  0.1097E+00
     -1.801  0.1050E-10  0.1320E-11  0.1579E-11
     -1.727  0.5251E+00  0.6601E-01  0.7892E-01
     -1.652  0.0000E+00  0.0000E+00  0.0000E+00
     -1.578  0.4219E+00  0.2338E-01  0.8035E-01
     -1.504  0.1986E+00  0.1101E-01  0.3783E-01
     -1.430  0.1503E-11  0.2913E-12  0.4373E-12
     -1.355  0.1444E+00  0.2799E-01  0.4201E-01
     -1.281  0.1790E-02  0.5559E-04  0.5672E-03
     -1.207  0.1518E+00  0.4716E-02  0.4812E-01
     -1.132  0.0000E+00  0.0000E+00  0.0000E+00
     -1.058  0.0000E+00  0.0000E+00  0.0000E+00
     -0.984  0.0000E+00  0.0000E+00  0.0000E+00
     -0.910  0.4212E+00  0.5135E-01  0.1481E+00
     -0.835  0.0000E+00  0.0000E+00  0.0000E+00
     -0.761  0.0000E+00  0.0000E+00  0.0000E+00
     -0.687  0.0000E+00  0.0000E+00  0.0000E+00
     -0.613  0.0000E+00  0.0000E+00  0.0000E+00
     -0.538  0.1169E-05  0.1684E-06  0.4663E-06
     -0.464  0.2256E+00  0.3252E-01  0.9003E-01
     -0.390  0.7249E-02  0.1075E+00  0.4470E-01
     -0.315  0.0000E+00  0.0000E+00  0.0000E+00
     -0.241  0.5603E-17  0.2258E-16  0.1110E-16
     -0.167  0.4993E-01  0.2012E+00  0.9893E-01
     -0.093  0.0000E+00  0.0000E+00  0.0000E+00
     -0.018  0.3853E-04  0.1135E-02  0.6630E-03
      0.056  0.1831E-01  0.2778E+00  0.1216E+00
      0.130  0.1177E-01  0.2139E+00  0.5029E-01
      0.205  0.3339E-01  0.1702E+00  0.7824E-01
      0.279  0.0000E+00  0.0000E+00  0.0000E+00
      0.353  0.3025E-16  0.3056E-01  0.7070E-02
      0.427  0.3339E-01  0.9951E-01  0.5211E-01
      0.502  0.2885E+00  0.1524E+00  0.1886E+00
      0.576  0.9327E-01  0.1603E+00  0.1152E+00
      0.650  0.3881E-02  0.4517E+00  0.1791E+00
      0.724  0.2582E-15  0.4151E-01  0.1811E-01
      0.799  0.4395E-15  0.7067E-01  0.3083E-01
      0.873  0.1722E-08  0.1265E-06  0.6479E-07
      0.947  0.1226E-01  0.3183E+00  0.1759E+00
      1.022  0.2025E-01  0.9406E-01  0.7148E-01
      1.096  0.9036E-02  0.2319E-01  0.1996E-01
      1.170  0.5880E-01  0.3574E+00  0.2569E+00
      1.244  0.1445E-13  0.1969E+00  0.1423E+00
      1.319  0.0000E+00  0.0000E+00  0.0000E+00
      1.393  0.7331E-27  0.2303E-12  0.1884E-12
      1.467  0.8710E-15  0.2177E+00  0.1779E+00
      1.542  0.2692E-15  0.3042E-01  0.2475E-01
      1.616  0.2356E-17  0.2824E-03  0.2953E-03
      1.690  0.1281E-14  0.1921E+00  0.2064E+00
      1.764  0.0000E+00  0.0000E+00  0.0000E+00
      1.839  0.0000E+00  0.0000E+00  0.0000E+00
      1.913  0.2735E-15  0.6380E-01  0.9072E-01
      1.987  0.8014E-21  0.1267E-08  0.2308E-08
      2.061  0.5027E-13  0.7949E-01  0.1448E+00
      2.136  0.0000E+00  0.0000E+00  0.0000E+00
      2.210  0.3212E-26  0.3939E-14  0.1184E-13
      2.284  0.8314E-14  0.1020E-01  0.3065E-01
      2.359  0.0000E+00  0.0000E+00  0.0000E+00
      2.433  0.0000E+00  0.0000E+00  0.0000E+00
      2.507  0.0000E+00  0.0000E+00  0.0000E+00
      2.581  0.0000E+00  0.0000E+00  0.0000E+00
      2.656  0.0000E+00  0.0000E+00  0.0000E+00
      2.730  0.0000E+00  0.0000E+00  0.0000E+00
      2.804  0.0000E+00  0.0000E+00  0.0000E+00
      2.879  0.5005E-03  0.1804E-16  0.1797E-16
      2.953  0.3760E-01  0.1355E-14  0.1350E-14
      3.027  0.0000E+00  0.0000E+00  0.0000E+00
      3.101  0.0000E+00  0.0000E+00  0.0000E+00
      3.176  0.0000E+00  0.0000E+00  0.0000E+00
      3.250  0.0000E+00  0.0000E+00  0.0000E+00
      3.324  0.0000E+00  0.0000E+00  0.0000E+00
      3.398  0.0000E+00  0.0000E+00  0.0000E+00
      3.473  0.0000E+00  0.0000E+00  0.0000E+00
      3.547  0.0000E+00  0.0000E+00  0.0000E+00
      3.621  0.0000E+00  0.0000E+00  0.0000E+00
      3.696  0.0000E+00  0.0000E+00  0.0000E+00
      3.770  0.0000E+00  0.0000E+00  0.0000E+00
      3.844  0.0000E+00  0.0000E+00  0.0000E+00
      3.918  0.1284E-09  0.1621E-10  0.5217E-11
      3.993  0.1221E+00  0.1542E-01  0.4957E-02
      4.067  0.2656E+00  0.4074E-01  0.6655E-02
      4.141  0.1821E+00  0.3008E-01  0.4329E-02
      4.216  0.0000E+00  0.0000E+00  0.0000E+00
      4.290  0.0000E+00  0.0000E+00  0.0000E+00
      4.364  0.0000E+00  0.0000E+00  0.0000E+00
      4.438  0.0000E+00  0.0000E+00  0.0000E+00
      4.513  0.0000E+00  0.0000E+00  0.0000E+00
      4.587  0.0000E+00  0.0000E+00  0.0000E+00
      4.661  0.2396E-02  0.1016E-03  0.1919E-03
      4.735  0.1480E+00  0.4195E-01  0.2564E-01
      4.810  0.3413E-03  0.4586E-06  0.6458E-04
      4.884  0.4939E+00  0.1095E+00  0.3977E-01
      4.958  0.6712E+00  0.1660E+00  0.7787E-01
      5.033  0.9789E+00  0.2680E+00  0.1124E+00
      5.107  0.4582E+00  0.7087E-01  0.3604E-01
      5.181  0.5691E-02  0.2319E-02  0.1140E-02
      5.255  0.1977E+00  0.8056E-01  0.3960E-01
      5.330  0.6700E-01  0.3935E-01  0.2117E-01
      5.404  0.0000E+00  0.0000E+00  0.0000E+00
      5.478  0.0000E+00  0.0000E+00  0.0000E+00
      5.553  0.0000E+00  0.0000E+00  0.0000E+00
      5.627  0.0000E+00  0.0000E+00  0.0000E+00
      5.701  0.1854E-14  0.8333E-16  0.1310E-15
      5.775  0.7082E+00  0.3182E-01  0.5003E-01
      5.850  0.3990E-01  0.1171E+00  0.6778E-02
      5.924  0.1219E+01  0.3459E+00  0.2374E+00
      5.998  0.0000E+00  0.0000E+00  0.0000E+00
      6.072  0.0000E+00  0.0000E+00  0.0000E+00
      6.147  0.1074E-09  0.3008E-09  0.2972E-10
      6.221  0.1357E+00  0.3803E+00  0.3757E-01
      6.295  0.1029E-02  0.3366E+00  0.8255E-01
      6.370  0.0000E+00  0.0000E+00  0.0000E+00
      6.444  0.0000E+00  0.0000E+00  0.0000E+00
      6.518  0.0000E+00  0.0000E+00  0.0000E+00
      6.592  0.0000E+00  0.0000E+00  0.0000E+00
      6.667  0.0000E+00  0.0000E+00  0.0000E+00
      6.741  0.1411E-04  0.1383E-02  0.7113E-03
      6.815  0.2158E-02  0.2979E+00  0.1083E+00
      6.890  0.1997E+00  0.5531E+00  0.1299E+00
      6.964  0.0000E+00  0.0000E+00  0.0000E+00
      7.038  0.1033E-12  0.6205E-12  0.2147E-12
      7.112  0.4378E-01  0.5832E+00  0.1001E+00
      7.187  0.3444E-10  0.1359E+00  0.3859E-02
      7.261  0.7515E-04  0.1375E-04  0.9811E-05
      7.335  0.1628E+00  0.1239E+00  0.2475E-01
      7.409  0.1683E-07  0.7544E+00  0.8751E-01
      7.484  0.2744E-03  0.2774E+00  0.8935E-01
      7.558  0.0000E+00  0.0000E+00  0.0000E+00
      7.632  0.1170E-03  0.4037E-02  0.7186E-03
      7.707  0.4827E-02  0.1673E+00  0.2969E-01
      7.781  0.3050E-11  0.3136E+00  0.1750E-01
      7.855  0.4904E-03  0.6212E+00  0.1089E+00
      7.929  0.1428E+00  0.4734E+00  0.1125E+00
      8.004  0.0000E+00  0.0000E+00  0.0000E+00
      8.078  0.2150E-16  0.3045E-05  0.6640E-06
      8.152  0.3089E-11  0.4374E+00  0.9540E-01
      8.227  0.0000E+00  0.0000E+00  0.0000E+00
      8.301  0.3757E-11  0.4451E+00  0.5593E-01
      8.375  0.1746E-02  0.2840E-02  0.7998E-03
      8.449  0.3225E-01  0.5246E-01  0.1478E-01
      8.524  0.1038E+00  0.1906E+00  0.7159E-01
      8.598  0.0000E+00  0.0000E+00  0.0000E+00
      8.672  0.2123E-13  0.8105E-13  0.3053E-13
      8.746  0.6297E-01  0.2404E+00  0.9056E-01
      8.821  0.3170E-12  0.5794E-02  0.1062E-02
      8.895  0.1081E-10  0.1976E+00  0.3621E-01
      8.969  0.1344E-19  0.2329E-12  0.3053E-13
      9.044  0.1346E-07  0.2332E+00  0.3058E-01
      9.118  0.6061E-01  0.1332E+00  0.3822E-01
      9.192  0.1100E+00  0.3434E+00  0.1439E+00
      9.266  0.0000E+00  0.0000E+00  0.0000E+00
      9.341  0.0000E+00  0.0000E+00  0.0000E+00
      9.415  0.1505E-03  0.6071E-01  0.2249E-01
      9.489  0.3353E-01  0.2515E+00  0.1173E+00
      9.564  0.9808E-04  0.1085E-01  0.1632E-02
      9.638  0.4651E-02  0.5144E+00  0.7738E-01
      9.712  0.6999E-12  0.1372E+00  0.1423E-01
      9.786  0.0000E+00  0.0000E+00  0.0000E+00
      9.861  0.1132E-08  0.1707E-01  0.2778E-02
      9.935  0.2869E-07  0.4328E+00  0.7044E-01
     10.009  0.0000E+00  0.0000E+00  0.0000E+00
     10.083  0.0000E+00  0.0000E+00  0.0000E+00
     10.158  0.0000E+00  0.0000E+00  0.0000E+00
     10.232  0.0000E+00  0.0000E+00  0.0000E+00
     10.306  0.0000E+00  0.0000E+00  0.0000E+00
     10.381  0.0000E+00  0.0000E+00  0.0000E+00
     10.455  0.0000E+00  0.0000E+00  0.0000E+00
     10.529  0.0000E+00  0.0000E+00  0.0000E+00
     10.603  0.0000E+00  0.0000E+00  0.0000E+00
     10.678  0.0000E+00  0.0000E+00  0.0000E+00
     10.752  0.0000E+00  0.0000E+00  0.0000E+00
     10.826  0.0000E+00  0.0000E+00  0.0000E+00
     10.901  0.8394E-13  0.3973E-15  0.6095E-14
     10.975  0.2905E-01  0.1375E-03  0.2110E-02
     11.049  0.0000E+00  0.0000E+00  0.0000E+00
     11.123  0.0000E+00  0.0000E+00  0.0000E+00
     11.198  0.0000E+00  0.0000E+00  0.0000E+00
     11.272  0.2602E-15  0.5270E-05  0.3433E-06
     11.346  0.3896E-11  0.7892E-01  0.5140E-02
     11.420  0.0000E+00  0.0000E+00  0.0000E+00
     11.495  0.0000E+00  0.0000E+00  0.0000E+00
     11.569  0.0000E+00  0.0000E+00  0.0000E+00
     11.643  0.0000E+00  0.0000E+00  0.0000E+00
     11.718  0.0000E+00  0.0000E+00  0.0000E+00
     11.792  0.0000E+00  0.0000E+00  0.0000E+00
     11.866  0.0000E+00  0.0000E+00  0.0000E+00
     11.940  0.0000E+00  0.0000E+00  0.0000E+00
     12.015  0.0000E+00  0.0000E+00  0.0000E+00
     12.089  0.0000E+00  0.0000E+00  0.0000E+00
     12.163  0.0000E+00  0.0000E+00  0.0000E+00
     12.238  0.0000E+00  0.0000E+00  0.0000E+00
     12.312  0.0000E+00  0.0000E+00  0.0000E+00
     12.31180794     -9.97152135  301      2.30287920      1.00000000
     -9.972  0.0000E+00  0.0000E+00  0.0000E+00
     -9.897  0.0000E+00  0.0000E+00  0.0000E+00
     -9.823  0.0000E+00  0.0000E+00  0.0000E+00
     -9.749  0.0000E+00  0.0000E+00  0.0000E+00
     -9.674  0.0000E+00  0.0000E+00  0.0000E+00
     -9.600  0.0000E+00  0.0000E+00  0.0000E+00
     -9.526  0.0000E+00  0.0000E+00  0.0000E+00
     -9.452  0.0000E+00  0.0000E+00  0.0000E+00
     -9.377  0.0000E+00  0.0000E+00  0.0000E+00
     -9.303  0.0000E+00  0.0000E+00  0.0000E+00
     -9.229  0.0000E+00  0.0000E+00  0.0000E+00
     -9.154  0.0000E+00  0.0000E+00  0.0000E+00
     -9.080  0.0000E+00  0.0000E+00  0.0000E+00
     -9.006  0.8198E-12  0.3869E-23  0.1671E-23
     -8.932  0.7083E-01  0.3343E-12  0.1444E-12
     -8.857  0.1632E+00  0.5460E-04  0.3915E-06
     -8.783  0.8405E+00  0.3261E-03  0.1229E-05
     -8.709  0.5736E+00  0.2887E-03  0.3601E-05
     -8.635  0.2176E+01  0.1038E-02  0.1669E-04
     -8.560  0.1477E+00  0.5560E-04  0.2210E-05
     -8.486  0.5915E+01  0.1359E-02  0.6165E-04
     -8.412  0.4432E+01  0.3457E-03  0.1641E-04
     -8.337  0.1025E+01  0.2963E-08  0.1024E-05
     -8.263  0.0000E+00  0.0000E+00  0.0000E+00
     -8.189  0.0000E+00  0.0000E+00  0.0000E+00
     -8.115  0.0000E+00  0.0000E+00  0.0000E+00
     -8.040  0.0000E+00  0.0000E+00  0.0000E+00
     -7.966  0.0000E+00  0.0000E+00  0.0000E+00
     -7.892  0.0000E+00  0.0000E+00  0.0000E+00
     -7.817  0.0000E+00  0.0000E+00  0.0000E+00
     -7.743  0.0000E+00  0.0000E+00  0.0000E+00
     -7.669  0.0000E+00  0.0000E+00  0.0000E+00
     -7.595  0.0000E+00  0.0000E+00  0.0000E+00
     -7.520  0.0000E+00  0.0000E+00  0.0000E+00
     -7.446  0.0000E+00  0.0000E+00  0.0000E+00
     -7.372  0.0000E+00  0.0000E+00  0.0000E+00
     -7.298  0.0000E+00  0.0000E+00  0.0000E+00
     -7.223  0.0000E+00  0.0000E+00  0.0000E+00
     -7.149  0.0000E+00  0.0000E+00  0.0000E+00
     -7.075  0.0000E+00  0.0000E+00  0.0000E+00
     -7.000  0.0000E+00  0.0000E+00  0.0000E+00
     -6.926  0.0000E+00  0.0000E+00  0.0000E+00
     -6.852  0.0000E+00  0.0000E+00  0.0000E+00
     -6.778  0.0000E+00  0.0000E+00  0.0000E+00
     -6.703  0.0000E+00  0.0000E+00  0.0000E+00
     -6.629  0.0000E+00  0.0000E+00  0.0000E+00
     -6.555  0.0000E+00  0.0000E+00  0.0000E+00
     -6.480  0.0000E+00  0.0000E+00  0.0000E+00
     -6.406  0.0000E+00  0.0000E+00  0.0000E+00
     -6.332  0.0000E+00  0.0000E+00  0.0000E+00
     -6.258  0.0000E+00  0.0000E+00  0.0000E+00
     -6.183  0.0000E+00  0.0000E+00  0.0000E+00
     -6.109  0.0000E+00  0.0000E+00  0.0000E+00
     -6.035  0.0000E+00  0.0000E+00  0.0000E+00
     -5.961  0.0000E+00  0.0000E+00  0.0000E+00
     -5.886  0.8116E-29  0.1016E-16  0.3297E-18
     -5.812  0.1490E-12  0.2575E-01  0.9143E-03
     -5.738  0.1079E-01  0.4648E+00  0.2453E-01
     -5.663  0.2665E-02  0.3688E+00  0.2909E-01
     -5.589  0.3790E-01  0.9691E-01  0.1221E-01
     -5.515  0.9229E-02  0.1476E-01  0.2831E-01
     -5.441  0.9396E-01  0.3835E-01  0.4341E-02
     -5.366  0.3214E-01  0.6034E-02  0.9629E-03
     -5.292  0.4258E-01  0.6841E-02  0.5501E-03
     -5.218  0.3159E+00  0.4498E-01  0.3976E-02
     -5.143  0.2890E+00  0.1465E-01  0.3090E-02
     -5.069  0.5043E+00  0.1364E-01  0.2876E-02
     -4.995  0.2072E+00  0.1269E-02  0.7351E-03
     -4.921  0.0000E+00  0.0000E+00  0.0000E+00
     -4.846  0.0000E+00  0.0000E+00  0.0000E+00
     -4.772  0.0000E+00  0.0000E+00  0.0000E+00
     -4.698  0.0000E+00  0.0000E+00  0.0000E+00
     -4.624  0.0000E+00  0.0000E+00  0.0000E+00
     -4.549  0.0000E+00  0.0000E+00  0.0000E+00
     -4.475  0.0000E+00  0.0000E+00  0.0000E+00
     -4.401  0.0000E+00  0.0000E+00  0.0000E+00
     -4.326  0.0000E+00  0.0000E+00  0.0000E+00
     -4.252  0.0000E+00  0.0000E+00  0.0000E+00
     -4.178  0.0000E+00  0.0000E+00  0.0000E+00
     -4.104  0.0000E+00  0.0000E+00  0.0000E+00
     -4.029  0.0000E+00  0.0000E+00  0.0000E+00
     -3.955  0.0000E+00  0.0000E+00  0.0000E+00
     -3.881  0.0000E+00  0.0000E+00  0.0000E+00
     -3.806  0.0000E+00  0.0000E+00  0.0000E+00
     -3.732  0.0000E+00  0.0000E+00  0.0000E+00
     -3.658  0.0000E+00  0.0000E+00  0.0000E+00
     -3.584  0.0000E+00  0.0000E+00  0.0000E+00
     -3.509  0.0000E+00  0.0000E+00  0.0000E+00
     -3.435  0.0000E+00  0.0000E+00  0.0000E+00
     -3.361  0.0000E+00  0.0000E+00  0.0000E+00