    2    2    1    1
  0.3405476E+02  0.4583961E-09  0.4583961E-09  0.4583961E-09  0.5000000E-15
  1.000000000000000E-004
  CAR 
 Name                                    
     18     29     13
 
  0.0000000E+00  0.0000000E+00  0.0000000E+00  0.4629630E-02
    1       -8.958643   1.000000
    2       -5.830269   1.000000
    3       -5.830269   1.000000
    4       -5.830269   1.000000
    5       -5.552486   1.000000
    6       -5.552486   1.000000
    7        2.260703   1.000000
    8        2.260703   1.000000
    9        2.260703   1.000000
   10        2.894245   0.000000
   11        6.766274   0.000000
   12        6.766274   0.000000
   13        6.766274   0.000000
 
  0.1666667E+00  0.0000000E+00  0.0000000E+00  0.3703704E-01
    1       -8.853337   1.000000
    2       -5.810451   1.000000
    3       -5.810451   1.000000
    4       -5.751818   1.000000
    5       -5.553843   1.000000
    6       -5.553843   1.000000
    7        0.476580   1.000000
    8        2.026307   1.000000
    9        2.026307   1.000000
   10        4.014582   0.000000
   11        6.868363   0.000000
   12        7.108615   0.000000
   13        7.108615   0.000000
 
  0.3333333E+00  0.0000000E+00  0.0000000E+00  0.3703704E-01
    1       -8.639222   1.000000
    2       -5.776358   1.000000
    3       -5.776358   1.000000
    4       -5.549703   1.000000
    5       -5.549703   1.000000
    6       -5.478808   1.000000
    7       -1.382201   1.000000
    8        1.636124   1.000000
    9        1.636124   1.000000
   10        4.072333   0.000000
   11        7.391447   0.000000
   12        7.391447   0.000000
   13        8.386626   0.000000
 
  0.5000000E+00  0.0000000E+00  0.0000000E+00  0.1851852E-01
    1       -8.532175   1.000000
    2       -5.763135   1.000000
    3       -5.763135   1.000000
    4       -5.543087   1.000000
    5       -5.543087   1.000000
    6       -5.223379   1.000000
    7       -2.243683   1.000000
    8        1.467110   1.000000
    9        1.467110   1.000000
   10        3.960772   0.000000
   11        7.352785   0.000000
   12        7.352785   0.000000
   13        9.144444   0.000000
 
  0.1666667E+00  0.1666667E+00  0.0000000E+00  0.2777778E-01
    1       -8.818483   1.000000
    2       -5.790408   1.000000
    3       -5.790408   1.000000
    4       -5.755202   1.000000
    5       -5.562131   1.000000
    6       -5.544345   1.000000
    7        0.474222   1.000000
    8        1.638462   1.000000
    9        1.638462   1.000000
   10        4.676373   0.000000
   11        5.840217   0.000000
   12        7.726361   0.000000
   13        7.726361   0.000000
 
  0.3333333E+00  0.1666667E+00  0.0000000E+00  0.1111111E+00
    1       -8.641240   1.000000
    2       -5.764427   1.000000
    3       -5.751697   1.000000
    4       -5.615209   1.000000
    5       -5.538207   1.000000
    6       -5.497253   1.000000
    7       -0.917414   1.000000
    8        1.103724   1.000000
    9        1.221403   1.000000
   10        5.037908   0.000000
   11        6.189433   0.000000
   12        7.857383   0.000000
   13        8.293728   0.000000
 
  0.5000000E+00  0.1666667E+00  0.0000000E+00  0.1111111E+00
    1       -8.500138   1.000000
    2       -5.748656   1.000000
    3       -5.735160   1.000000
    4       -5.570911   1.000000
    5       -5.539961   1.000000
    6       -5.202021   1.000000
    7       -2.025385   1.000000
    8        0.567588   1.000000
    9        1.138216   1.000000
   10        4.941010   0.000000
   11        6.845168   0.000000
   12        8.108700   0.000000
   13        8.723000   0.000000
 
 -0.3333333E+00  0.1666667E+00  0.0000000E+00  0.1111111E+00
    1       -8.535037   1.000000
    2       -5.750007   1.000000
    3       -5.749639   1.000000
    4       -5.556563   1.000000
    5       -5.556226   1.000000
    6       -5.287663   1.000000
    7       -1.754270   1.000000
    8        0.429640   1.000000
    9        1.442508   1.000000
   10        4.998080   0.000000
   11        7.086975   0.000000
   12        7.803922   0.000000
   13        8.494120   0.000000
 
 -0.1666667E+00  0.1666667E+00  0.0000000E+00  0.5555556E-01
    1       -8.711722   1.000000
    2       -5.787702   1.000000
    3       -5.772858   1.000000
    4       -5.626074   1.000000
    5       -5.563132   1.000000
    6       -5.532844   1.000000
    7       -0.507065   1.000000
    8        0.973209   1.000000
    9        1.903198   1.000000
   10        4.840382   0.000000
   11        6.839902   0.000000
   12        7.339441   0.000000
   13        7.646332   0.000000
 
  0.3333333E+00  0.3333333E+00  0.0000000E+00  0.2777778E-01
    1       -8.537009   1.000000
    2       -5.703310   1.000000
    3       -5.703310   1.000000
    4       -5.657483   1.000000
    5       -5.528061   1.000000
    6       -5.390230   1.000000
    7       -1.264982   1.000000
    8        0.726822   1.000000
    9        0.726822   1.000000
   10        4.869700   0.000000
   11        5.294187   0.000000
   12        9.474020   0.000000
   13        9.683240   0.000000
 
  0.5000000E+00  0.3333333E+00  0.0000000E+00  0.1111111E+00
    1       -8.433919   1.000000
    2       -5.703752   1.000000
    3       -5.680527   1.000000
    4       -5.625380   1.000000
    5       -5.529249   1.000000
    6       -5.140909   1.000000
    7       -1.901118   1.000000
    8        0.050291   1.000000
    9        0.591051   1.000000
   10        4.962025   0.000000
   11        5.861616   0.000000
   12        9.126870   0.000000
   13        9.873193   0.000000
 
 -0.3333333E+00  0.3333333E+00  0.0000000E+00  0.5555556E-01
    1       -8.434073   1.000000
    2       -5.723945   1.000000
    3       -5.701114   1.000000
    4       -5.582868   1.000000
    5       -5.547822   1.000000
    6       -5.075666   1.000000
    7       -1.943544   1.000000
    8       -0.414034   1.000000
    9        0.906816   1.000000
   10        5.194658   0.000000
   11        7.284346   0.000000
   12        9.019052   0.000000
   13        9.135563   0.000000
 
  0.5000000E+00  0.5000000E+00  0.0000000E+00  0.1388889E-01
    1       -8.399785   1.000000
    2       -5.670131   1.000000
    3       -5.655466   1.000000
    4       -5.655466   1.000000
    5       -5.519883   1.000000
    6       -5.095381   1.000000
    7       -2.108379   1.000000
    8        0.352966   1.000000
    9        0.352966   1.000000
   10        4.708172   0.000000
   11        4.828287   0.000000
   12       10.949215   0.000000
   13       11.298929   0.000000
 
  0.5000000E+00  0.3333333E+00  0.1666667E+00  0.1111111E+00
    1       -8.502026   1.000000
    2       -5.728824   1.000000
    3       -5.721422   1.000000
    4       -5.599170   1.000000
    5       -5.539376   1.000000
    6       -5.265899   1.000000
    7       -1.581439   1.000000
    8        0.136475   1.000000
    9        0.909347   1.000000
   10        5.756396   0.000000
   11        6.276129   0.000000
   12        7.436634   0.000000
   13        9.577959   0.000000
 
 -0.3333333E+00  0.3333333E+00  0.1666667E+00  0.1111111E+00
    1       -8.434072   1.000000
    2       -5.720962   1.000000
    3       -5.705524   1.000000
    4       -5.579472   1.000000
    5       -5.549987   1.000000
    6       -5.074631   1.000000
    7       -1.982056   1.000000
    8       -0.183140   1.000000
    9        0.619846   1.000000
   10        5.886430   0.000000
   11        6.758521   0.000000
   12        7.909971   0.000000
   13        9.421015   0.000000
 
 -0.3333333E+00  0.5000000E+00  0.1666667E+00  0.5555556E-01
    1       -8.400960   1.000000
    2       -5.692749   1.000000
    3       -5.688838   1.000000
    4       -5.604726   1.000000
    5       -5.539380   1.000000
    6       -5.028378   1.000000
    7       -2.023334   1.000000
    8       -0.002120   1.000000
    9        0.081352   1.000000
   10        5.893579   0.000000
   11        5.910825   0.000000
   12        8.834213   0.000000
   13        9.110094   0.000000
 
  0.0000000E+00  0.0000000E+00  0.0000000E+00  0.0000000E+00
    1       -8.958643   1.000000
    2       -5.830269   1.000000
    3       -5.830269   1.000000
    4       -5.830269   1.000000
    5       -5.552486   1.000000
    6       -5.552486   1.000000
    7        2.260703   1.000000
    8        2.260703   1.000000
    9        2.260703   1.000000
   10        2.894245   0.000000
   11        6.766274   0.000000
   12        6.766274   0.000000
   13        6.766274   0.000000
 
  0.3846154E-01  0.0000000E+00  0.3846154E-01  0.0000000E+00
    1       -8.950568   1.000000
    2       -5.828005   1.000000
    3       -5.828005   1.000000
    4       -5.826454   1.000000
    5       -5.553290   1.000000
    6       -5.552011   1.000000
    7        1.986627   1.000000
    8        2.218821   1.000000
    9        2.218821   1.000000
   10        3.173908   0.000000
   11        6.683797   0.000000
   12        6.826055   0.000000
   13        6.826056   0.000000
 
  0.7692308E-01  0.0000000E+00  0.7692308E-01  0.0000000E+00
    1       -8.926700   1.000000
    2       -5.821329   1.000000
    3       -5.821328   1.000000
    4       -5.814826   1.000000
    5       -5.555573   1.000000
    6       -5.550619   1.000000
    7        1.539823   1.000000
    8        2.100704   1.000000
    9        2.100704   1.000000
   10        3.634121   0.000000
   11        6.474360   0.000000
   12        6.997897   0.000000
   13        6.997897   0.000000
 
  0.1153846E+00  0.0000000E+00  0.1153846E+00  0.0000000E+00
    1       -8.888378   1.000000
    2       -5.810507   1.000000
    3       -5.810507   1.000000
    4       -5.794936   1.000000
    5       -5.558774   1.000000
    6       -5.548393   1.000000
    7        1.078429   1.000000
    8        1.924960   1.000000
    9        1.924960   1.000000
   10        4.105451   0.000000
   11        6.205957   0.000000
   12        7.263375   0.000000
   13        7.263376   0.000000
 
  0.1538462E+00  0.0000000E+00  0.1538462E+00  0.0000000E+00
    1       -8.837663   1.000000
    2       -5.795969   1.000000
    3       -5.795969   1.000000
    4       -5.766486   1.000000
    5       -5.561659   1.000000
    6       -5.545454   1.000000
    7        0.623355   1.000000
    8        1.713426   1.000000
    9        1.713426   1.000000
   10        4.544587   0.000000
   11        5.928711   0.000000
   12        7.601102   0.000000
   13        7.601102   0.000000
 
  0.1923077E+00  0.0000000E+00  0.1923077E+00  0.0000000E+00
    1       -8.777494   1.000000
    2       -5.778382   1.000000
    3       -5.778382   1.000000
    4       -5.730569   1.000000
    5       -5.561270   1.000000
    6       -5.541980   1.000000
    7        0.180668   1.000000
    8        1.485696   1.000000
    9        1.485696   1.000000
   10        4.904881   0.000000
   11        5.676035   0.000000
   12        7.992277   0.000000
   13        7.992277   0.000000
 
  0.2307692E+00  0.0000000E+00  0.2307692E+00  0.0000000E+00
    1       -8.711397   1.000000
    2       -5.758598   1.000000
    3       -5.758597   1.000000
    4       -5.692919   1.000000
    5       -5.550065   1.000000
    6       -5.538178   1.000000
    7       -0.245772   1.000000
    8        1.257349   1.000000
    9        1.257349   1.000000
   10        5.108742   0.000000
   11        5.492139   0.000000
   12        8.422372   0.000000
   13        8.422439   0.000000
 
  0.2692308E+00  0.0000000E+00  0.2692308E+00  0.0000000E+00
    1       -8.643393   1.000000
    2       -5.737622   1.000000
    3       -5.737622   1.000000
    4       -5.666594   1.000000
    5       -5.534253   1.000000
    6       -5.513826   1.000000
    7       -0.651686   1.000000
    8        1.040229   1.000000
    9        1.040229   1.000000
   10        5.077800   0.000000
   11        5.429537   0.000000
   12        8.880591   0.000000
   13        8.881363   0.000000
 
  0.3076923E+00  0.0000000E+00  0.3076923E+00  0.0000000E+00
    1       -8.577631   1.000000
    2       -5.716647   1.000000
    3       -5.716646   1.000000
    4       -5.657614   1.000000
    5       -5.530433   1.000000
    6       -5.446851   1.000000
    7       -1.031025   1.000000
    8        0.843352   1.000000
    9        0.843352   1.000000
   10        4.949976   0.000000
   11        5.367622   0.000000
   12        9.228730   0.000000
   13        9.358278   0.000000
 
  0.3461539E+00  0.0000000E+00  0.3461539E+00  0.0000000E+00
    1       -8.518093   1.000000
    2       -5.696983   1.000000
    3       -5.696983   1.000000
    4       -5.658292   1.000000
    5       -5.526951   1.000000
    6       -5.359812   1.000000
    7       -1.375083   1.000000
    8        0.673613   1.000000
    9        0.673613   1.000000
   10        4.834544   0.000000
   11        5.250786   0.000000
   12        9.612843   0.000000
   13        9.846464   0.000000
 
  0.3846154E+00  0.0000000E+00  0.3846154E+00  0.0000000E+00
    1       -8.468263   1.000000
    2       -5.679922   1.000000
    3       -5.679922   1.000000
    4       -5.662147   1.000000
    5       -5.524004   1.000000
    6       -5.266015   1.000000
    7       -1.671685   1.000000
    8        0.536300   1.000000
    9        0.536300   1.000000
   10        4.753087   0.000000
   11        5.110315   0.000000
   12       10.055586   0.000000
   13       10.331713   0.000000
 
  0.4230769E+00  0.0000000E+00  0.4230769E+00  0.0000000E+00
    1       -8.430807   1.000000
    2       -5.666711   1.000000
    3       -5.666711   1.000000
    4       -5.666219   1.000000
    5       -5.521763   1.000000
    6       -5.179923   1.000000
    7       -1.904768   1.000000
    8        0.435394   1.000000
    9        0.435394   1.000000
   10        4.709650   0.000000
   11        4.977123   0.000000
   12       10.487294   0.000000
   13       10.786848   0.000000
 
  0.4615385E+00  0.0000000E+00  0.4615385E+00  0.0000000E+00
    1       -8.407643   1.000000
    2       -5.669111   1.000000
    3       -5.658345   1.000000
    4       -5.658345   1.000000
    5       -5.520362   1.000000
    6       -5.118083   1.000000
    7       -2.055794   1.000000
    8        0.373717   1.000000
    9        0.373717   1.000000
   10        4.701290   0.000000
   11        4.873429   0.000000
   12       10.824447   0.000000
   13       11.149423   0.000000
