       N       E                     dE             d eps       ncg     rms          rms(c)
DAV:   1     0.987280004624E+02    0.98728E+02   -0.81995E+03   754   0.116E+03
DAV:   2    -0.164306561596E+01   -0.10037E+03   -0.96592E+02   859   0.273E+02
DAV:   3    -0.545802446534E+01   -0.38150E+01   -0.38091E+01   879   0.561E+01
DAV:   4    -0.549302876187E+01   -0.35004E-01   -0.35001E-01  1070   0.484E+00
DAV:   5    -0.549324928038E+01   -0.22052E-03   -0.22052E-03   904   0.281E-01
DAV:   6    -0.549325759427E+01   -0.83139E-05   -0.83139E-05  1049   0.329E-02
DAV:   7    -0.549325797298E+01   -0.37870E-06   -0.37872E-06   666   0.430E-03
   1 F= -.54932580E+01 E0= -.54932580E+01  d E =-.549326E+01
