PROCAR new format
# of k-points:   29         # of bands:  13         # of ions:   2

 k-point    1 :    0.00000000 0.00000000 0.00000000     weight = 0.00462963

band   1 # energy   -8.95864275 # occ.  2.00000000
 
ion      s      p      d    tot
  1  0.063  0.000  0.000  0.063
  2  0.568  0.000  0.000  0.568
tot  0.631  0.000  0.000  0.631
 
band   2 # energy   -5.83026950 # occ.  2.00000000
 
ion      s      p      d    tot
  1  0.000  0.000  0.900  0.900
  2  0.000  0.022  0.001  0.023
tot  0.000  0.023  0.901  0.923
 
band   3 # energy   -5.83026924 # occ.  2.00000000
 
ion      s      p      d    tot
  1  0.000  0.000  0.900  0.900
  2  0.000  0.022  0.001  0.023
tot  0.000  0.023  0.901  0.923
 
band   4 # energy   -5.83026914 # occ.  2.00000000
 
ion      s      p      d    tot
  1  0.000  0.000  0.900  0.900
  2  0.000  0.022  0.001  0.023
tot  0.000  0.023  0.901  0.923
 
band   5 # energy   -5.55248553 # occ.  2.00000000
 
ion      s      p      d    tot
  1  0.000  0.000  0.945  0.945
  2  0.000  0.000  0.001  0.001
tot  0.000  0.000  0.946  0.946
 
band   6 # energy   -5.55248553 # occ.  2.00000000
 
ion      s      p      d    tot
  1  0.000  0.000  0.945  0.945
  2  0.000  0.000  0.001  0.001
tot  0.000  0.000  0.946  0.946
 
band   7 # energy    2.26070307 # occ.  2.00000000
 
ion      s      p      d    tot
  1  0.000  0.027  0.082  0.109
  2  0.000  0.493  0.001  0.493
tot  0.000  0.520  0.083  0.602
 
band   8 # energy    2.26070309 # occ.  2.00000000
 
ion      s      p      d    tot
  1  0.000  0.027  0.082  0.109
  2  0.000  0.493  0.001  0.493
tot  0.000  0.520  0.083  0.602
 
band   9 # energy    2.26070311 # occ.  2.00000000
 
ion      s      p      d    tot
  1  0.000  0.027  0.082  0.109
  2  0.000  0.493  0.001  0.493
tot  0.000  0.520  0.083  0.602
 
band  10 # energy    2.89424520 # occ.  0.00000000
 
ion      s      p      d    tot
  1  0.306  0.000  0.000  0.306
  2  0.241  0.000  0.000  0.241
tot  0.547  0.000  0.000  0.547
 
band  11 # energy    6.76627394 # occ.  0.00000000
 
ion      s      p      d    tot
  1  0.000  0.242  0.001  0.243
  2  0.000  0.008  0.092  0.100
tot  0.000  0.250  0.093  0.342
 
band  12 # energy    6.76627400 # occ.  0.00000000
 
ion      s      p      d    tot
  1  0.000  0.242  0.001  0.243
  2  0.000  0.008  0.092  0.100
tot  0.000  0.250  0.093  0.342
 
band  13 # energy    6.76627432 # occ.  0.00000000
 
ion      s      p      d    tot
  1  0.000  0.242  0.001  0.243
  2  0.000  0.008  0.092  0.100
tot  0.000  0.250  0.093  0.342
 

 k-point    2 :    0.16666667 0.00000000 0.00000000     weight = 0.03703704

band   1 # energy   -8.85333668 # occ.  2.00000000
 
ion      s      p      d    tot
  1  0.053  0.003  0.016  0.071
  2  0.574  0.000  0.000  0.574
tot  0.628  0.003  0.016  0.646
 
band   2 # energy   -5.81045145 # occ.  2.00000000
 
ion      s      p      d    tot
  1  0.000  0.000  0.903  0.904
  2  0.000  0.021  0.001  0.022
tot  0.000  0.022  0.904  0.926
 
band   3 # energy   -5.81045126 # occ.  2.00000000
 
ion      s      p      d    tot
  1  0.000  0.000  0.903  0.904
  2  0.000  0.021  0.001  0.022
tot  0.000  0.022  0.904  0.926
 
band   4 # energy   -5.75181827 # occ.  2.00000000
 
ion      s      p      d    tot
  1  0.005  0.000  0.883  0.888
  2  0.005  0.021  0.001  0.027
tot  0.010  0.021  0.883  0.915
 
band   5 # energy   -5.55384311 # occ.  2.00000000
 
ion      s      p      d    tot
  1  0.000  0.000  0.945  0.945
  2  0.000  0.000  0.001  0.001
tot  0.000  0.000  0.946  0.946
 
band   6 # energy   -5.55384305 # occ.  2.00000000
 
ion      s      p      d    tot
  1  0.000  0.000  0.945  0.945
  2  0.000  0.000  0.001  0.001
tot  0.000  0.000  0.946  0.946
 
band   7 # energy    0.47657954 # occ.  2.00000000
 
ion      s      p      d    tot
  1  0.119  0.026  0.062  0.207
  2  0.075  0.265  0.002  0.342
tot  0.194  0.291  0.064  0.549
 
band   8 # energy    2.02630726 # occ.  2.00000000
 
ion      s      p      d    tot
  1  0.000  0.040  0.073  0.112
  2  0.000  0.470  0.001  0.471
tot  0.000  0.509  0.074  0.583
 
band   9 # energy    2.02630734 # occ.  2.00000000
 
ion      s      p      d    tot
  1  0.000  0.040  0.073  0.112
  2  0.000  0.470  0.001  0.471
tot  0.000  0.509  0.074  0.583
 
band  10 # energy    4.01458235 # occ.  0.00000000
 
ion      s      p      d    tot
  1  0.214  0.032  0.005  0.251
  2  0.135  0.133  0.009  0.277
tot  0.349  0.165  0.014  0.528
 
band  11 # energy    6.86836265 # occ.  0.00000000
 
ion      s      p      d    tot
  1  0.049  0.122  0.013  0.184
  2  0.016  0.108  0.060  0.185
tot  0.066  0.230  0.073  0.368
 
band  12 # energy    7.10861516 # occ.  0.00000000
 
ion      s      p      d    tot
  1  0.000  0.229  0.006  0.235
  2  0.000  0.030  0.090  0.120
tot  0.000  0.259  0.097  0.355
 
band  13 # energy    7.10861544 # occ.  0.00000000
 
ion      s      p      d    tot
  1  0.000  0.229  0.006  0.235
  2  0.000  0.030  0.090  0.120
tot  0.000  0.259  0.097  0.355
 

 k-point    3 :    0.33333333 0.00000000 0.00000000     weight = 0.03703704

band   1 # energy   -8.63922195 # occ.  2.00000000
 
ion      s      p      d    tot
  1  0.030  0.008  0.060  0.098
  2  0.583  0.000  0.000  0.583
tot  0.613  0.008  0.060  0.681
 
band   2 # energy   -5.77635842 # occ.  2.00000000
 
ion      s      p      d    tot
  1  0.000  0.001  0.909  0.909
  2  0.000  0.019  0.001  0.019
tot  0.000  0.019  0.910  0.929
 
band   3 # energy   -5.77635836 # occ.  2.00000000
 
ion      s      p      d    tot
  1  0.000  0.001  0.909  0.909
  2  0.000  0.019  0.001  0.019
tot  0.000  0.019  0.910  0.929
 
band   4 # energy   -5.54970307 # occ.  2.00000000
 
ion      s      p      d    tot
  1  0.000  0.000  0.946  0.946
  2  0.000  0.000  0.001  0.001
tot  0.000  0.000  0.947  0.947
 
band   5 # energy   -5.54970286 # occ.  2.00000000
 
ion      s      p      d    tot
  1  0.000  0.000  0.946  0.946
  2  0.000  0.000  0.001  0.001
tot  0.000  0.000  0.947  0.947
 
band   6 # energy   -5.47880815 # occ.  2.00000000
 
ion      s      p      d    tot
  1  0.011  0.001  0.851  0.863
  2  0.030  0.014  0.001  0.045
tot  0.042  0.015  0.852  0.908
 
band   7 # energy   -1.38220109 # occ.  2.00000000
 
ion      s      p      d    tot
  1  0.145  0.028  0.042  0.215
  2  0.041  0.228  0.002  0.271
tot  0.186  0.256  0.044  0.486
 
band   8 # energy    1.63612409 # occ.  2.00000000
 
ion      s      p      d    tot
  1  0.000  0.056  0.057  0.114
  2  0.000  0.443  0.001  0.444
tot  0.000  0.499  0.059  0.558
 
band   9 # energy    1.63612424 # occ.  2.00000000
 
ion      s      p      d    tot
  1  0.000  0.056  0.057  0.114
  2  0.000  0.443  0.001  0.444
tot  0.000  0.499  0.059  0.558
 
band  10 # energy    4.07233314 # occ.  0.00000000
 
ion      s      p      d    tot
  1  0.235  0.039  0.006  0.280
  2  0.104  0.055  0.025  0.184
tot  0.340  0.094  0.030  0.464
 
band  11 # energy    7.39144652 # occ.  0.00000000
 
ion      s      p      d    tot
  1  0.000  0.180  0.023  0.203
  2  0.000  0.038  0.090  0.128
tot  0.000  0.218  0.113  0.331
 
band  12 # energy    7.39144666 # occ.  0.00000000
 
ion      s      p      d    tot
  1  0.000  0.180  0.023  0.203
  2  0.000  0.038  0.090  0.128
tot  0.000  0.218  0.113  0.331
 
band  13 # energy    8.38662570 # occ.  0.00000000
 
ion      s      p      d    tot
  1  0.034  0.055  0.016  0.105
  2  0.024  0.249  0.025  0.297
tot  0.058  0.304  0.040  0.402
 

 k-point    4 :    0.50000000 0.00000000 0.00000000     weight = 0.01851852

band   1 # energy   -8.53217534 # occ.  2.00000000
 
ion      s      p      d    tot
  1  0.017  0.010  0.091  0.118
  2  0.584  0.000  0.000  0.584
tot  0.601  0.010  0.091  0.702
 
band   2 # energy   -5.76313498 # occ.  2.00000000
 
ion      s      p      d    tot
  1  0.000  0.001  0.911  0.912
  2  0.000  0.017  0.001  0.018
tot  0.000  0.018  0.912  0.930
 
band   3 # energy   -5.76313496 # occ.  2.00000000
 
ion      s      p      d    tot
  1  0.000  0.001  0.911  0.912
  2  0.000  0.017  0.001  0.018
tot  0.000  0.018  0.912  0.930
 
band   4 # energy   -5.54308747 # occ.  2.00000000
 
ion      s      p      d    tot
  1  0.000  0.000  0.948  0.948
  2  0.000  0.000  0.001  0.001
tot  0.000  0.000  0.948  0.948
 
band   5 # energy   -5.54308716 # occ.  2.00000000
 
ion      s      p      d    tot
  1  0.000  0.000  0.948  0.948
  2  0.000  0.000  0.001  0.001
tot  0.000  0.000  0.948  0.948
 
band   6 # energy   -5.22337917 # occ.  2.00000000
 
ion      s      p      d    tot
  1  0.006  0.002  0.859  0.867
  2  0.062  0.001  0.001  0.064
tot  0.068  0.002  0.860  0.931
 
band   7 # energy   -2.24368269 # occ.  2.00000000
 
ion      s      p      d    tot
  1  0.166  0.026  0.000  0.192
  2  0.007  0.228  0.001  0.237
tot  0.173  0.254  0.001  0.429
 
band   8 # energy    1.46710955 # occ.  2.00000000
 
ion      s      p      d    tot
  1  0.000  0.062  0.050  0.112
  2  0.000  0.435  0.001  0.436
tot  0.000  0.497  0.052  0.549
 
band   9 # energy    1.46710973 # occ.  2.00000000
 
ion      s      p      d    tot
  1  0.000  0.062  0.050  0.112
  2  0.000  0.435  0.001  0.436
tot  0.000  0.497  0.052  0.549
 
band  10 # energy    3.96077152 # occ.  0.00000000
 
ion      s      p      d    tot
  1  0.244  0.031  0.010  0.285
  2  0.100  0.042  0.027  0.170
tot  0.344  0.073  0.037  0.455
 
band  11 # energy    7.35278490 # occ.  0.00000000
 
ion      s      p      d    tot
  1  0.000  0.152  0.033  0.185
  2  0.000  0.033  0.090  0.124
tot  0.000  0.186  0.123  0.309
 
band  12 # energy    7.35278497 # occ.  0.00000000
 
ion      s      p      d    tot
  1  0.000  0.152  0.033  0.185
  2  0.000  0.033  0.090  0.124
tot  0.000  0.186  0.123  0.309
 
band  13 # energy    9.14444352 # occ.  0.00000000
 
ion      s      p      d    tot
  1  0.001  0.034  0.025  0.059
  2  0.001  0.158  0.002  0.160
tot  0.001  0.192  0.026  0.219
 

 k-point    5 :    0.16666667 0.16666667 0.00000000     weight = 0.02777778

band   1 # energy   -8.81848344 # occ.  2.00000000
 
ion      s      p      d    tot
  1  0.050  0.003  0.021  0.074
  2  0.576  0.000  0.000  0.576
tot  0.626  0.004  0.021  0.651
 
band   2 # energy   -5.79040788 # occ.  2.00000000
 
ion      s      p      d    tot
  1  0.000  0.001  0.907  0.907
  2  0.000  0.020  0.001  0.021
tot  0.000  0.020  0.908  0.928
 
band   3 # energy   -5.79040763 # occ.  2.00000000
 
ion      s      p      d    tot
  1  0.000  0.001  0.907  0.907
  2  0.000  0.020  0.001  0.021
tot  0.000  0.020  0.908  0.928
 
band   4 # energy   -5.75520209 # occ.  2.00000000
 
ion      s      p      d    tot
  1  0.006  0.000  0.874  0.880
  2  0.006  0.023  0.000  0.029
tot  0.012  0.023  0.874  0.909
 
band   5 # energy   -5.56213067 # occ.  2.00000000
 
ion      s      p      d    tot
  1  0.000  0.000  0.942  0.942
  2  0.001  0.000  0.001  0.002
tot  0.001  0.000  0.943  0.944
 
band   6 # energy   -5.54434504 # occ.  2.00000000
 
ion      s      p      d    tot
  1  0.000  0.000  0.947  0.947
  2  0.000  0.000  0.001  0.001
tot  0.000  0.000  0.947  0.947
 
band   7 # energy    0.47422152 # occ.  2.00000000
 
ion      s      p      d    tot
  1  0.152  0.013  0.068  0.233
  2  0.092  0.248  0.002  0.341
tot  0.244  0.261  0.070  0.575
 
band   8 # energy    1.63846196 # occ.  2.00000000
 
ion      s      p      d    tot
  1  0.000  0.054  0.062  0.115
  2  0.000  0.431  0.002  0.433
tot  0.000  0.485  0.064  0.549
 
band   9 # energy    1.63846198 # occ.  2.00000000
 
ion      s      p      d    tot
  1  0.000  0.054  0.062  0.115
  2  0.000  0.431  0.002  0.433
tot  0.000  0.485  0.064  0.549
 
band  10 # energy    4.67637258 # occ.  0.00000000
 
ion      s      p      d    tot
  1  0.201  0.009  0.016  0.226
  2  0.105  0.245  0.004  0.354
tot  0.306  0.253  0.020  0.580
 
band  11 # energy    5.84021683 # occ.  0.00000000
 
ion      s      p      d    tot
  1  0.038  0.163  0.004  0.205
  2  0.019  0.000  0.064  0.083
tot  0.057  0.164  0.068  0.289
 
band  12 # energy    7.72636111 # occ.  0.00000000
 
ion      s      p      d    tot
  1  0.000  0.210  0.012  0.222
  2  0.000  0.078  0.091  0.169
tot  0.000  0.288  0.103  0.391
 
band  13 # energy    7.72636129 # occ.  0.00000000
 
ion      s      p      d    tot
  1  0.000  0.210  0.012  0.222
  2  0.000  0.078  0.091  0.169
tot  0.000  0.288  0.103  0.391
 

 k-point    6 :    0.33333333 0.16666667 0.00000000     weight = 0.11111111

band   1 # energy   -8.64123989 # occ.  2.00000000
 
ion      s      p      d    tot
  1  0.031  0.008  0.058  0.096
  2  0.583  0.000  0.000  0.583
tot  0.614  0.008  0.058  0.680
 
band   2 # energy   -5.76442734 # occ.  2.00000000
 
ion      s      p      d    tot
  1  0.000  0.000  0.909  0.910
  2  0.000  0.018  0.001  0.019
tot  0.001  0.018  0.910  0.929
 
band   3 # energy   -5.75169724 # occ.  2.00000000
 
ion      s      p      d    tot
  1  0.000  0.001  0.914  0.914
  2  0.000  0.017  0.001  0.018
tot  0.000  0.017  0.915  0.932
 
band   4 # energy   -5.61520885 # occ.  2.00000000
 
ion      s      p      d    tot
  1  0.004  0.000  0.903  0.908
  2  0.005  0.010  0.001  0.016
tot  0.009  0.010  0.904  0.923
 
band   5 # energy   -5.53820702 # occ.  2.00000000
 
ion      s      p      d    tot
  1  0.000  0.000  0.948  0.948
  2  0.000  0.000  0.001  0.001
tot  0.000  0.000  0.948  0.948
 
band   6 # energy   -5.49725345 # occ.  2.00000000
 
ion      s      p      d    tot
  1  0.008  0.000  0.882  0.891
  2  0.021  0.008  0.001  0.031
tot  0.030  0.009  0.883  0.922
 
band   7 # energy   -0.91741437 # occ.  2.00000000
 
ion      s      p      d    tot
  1  0.163  0.020  0.057  0.240
  2  0.059  0.227  0.002  0.288
tot  0.222  0.247  0.059  0.528
 
band   8 # energy    1.10372402 # occ.  2.00000000
 
ion      s      p      d    tot
  1  0.023  0.058  0.050  0.131
  2  0.008  0.373  0.003  0.384
tot  0.030  0.432  0.053  0.515
 
band   9 # energy    1.22140309 # occ.  2.00000000
 
ion      s      p      d    tot
  1  0.000  0.066  0.048  0.113
  2  0.000  0.408  0.002  0.410
tot  0.000  0.474  0.050  0.523
 
band  10 # energy    5.03790777 # occ.  0.00000000
 
ion      s      p      d    tot
  1  0.198  0.031  0.016  0.244
  2  0.061  0.171  0.026  0.258
tot  0.259  0.201  0.041  0.502
 
band  11 # energy    6.18943276 # occ.  0.00000000
 
ion      s      p      d    tot
  1  0.045  0.127  0.013  0.185
  2  0.035  0.076  0.048  0.159
tot  0.081  0.203  0.060  0.344
 
band  12 # energy    7.85738347 # occ.  0.00000000
 
ion      s      p      d    tot
  1  0.000  0.093  0.034  0.127
  2  0.009  0.072  0.073  0.154
tot  0.009  0.165  0.107  0.282
 
band  13 # energy    8.29372819 # occ.  0.00000000
 
ion      s      p      d    tot
  1  0.000  0.177  0.022  0.199
  2  0.000  0.091  0.093  0.184
tot  0.000  0.268  0.115  0.383
 

 k-point    7 :    0.50000000 0.16666667 0.00000000     weight = 0.11111111

band   1 # energy   -8.50013779 # occ.  2.00000000
 
ion      s      p      d    tot
  1  0.013  0.011  0.099  0.123
  2  0.584  0.000  0.000  0.584
tot  0.598  0.011  0.099  0.708
 
band   2 # energy   -5.74865623 # occ.  2.00000000
 
ion      s      p      d    tot
  1  0.000  0.000  0.912  0.913
  2  0.000  0.016  0.001  0.017
tot  0.000  0.016  0.913  0.930
 
band   3 # energy   -5.73516020 # occ.  2.00000000
 
ion      s      p      d    tot
  1  0.000  0.001  0.916  0.917
  2  0.000  0.016  0.001  0.017
tot  0.000  0.016  0.917  0.934
 
band   4 # energy   -5.57091145 # occ.  2.00000000
 
ion      s      p      d    tot
  1  0.000  0.000  0.940  0.940
  2  0.000  0.001  0.001  0.002
tot  0.000  0.001  0.941  0.942
 
band   5 # energy   -5.53996123 # occ.  2.00000000
 
ion      s      p      d    tot
  1  0.000  0.000  0.948  0.948
  2  0.000  0.000  0.001  0.001
tot  0.000  0.000  0.948  0.948
 
band   6 # energy   -5.20202132 # occ.  2.00000000
 
ion      s      p      d    tot
  1  0.007  0.002  0.846  0.855
  2  0.066  0.004  0.001  0.070
tot  0.073  0.006  0.847  0.926
 
band   7 # energy   -2.02538541 # occ.  2.00000000
 
ion      s      p      d    tot
  1  0.183  0.021  0.011  0.216
  2  0.013  0.226  0.002  0.241
tot  0.196  0.247  0.014  0.456
 
band   8 # energy    0.56758788 # occ.  2.00000000
 
ion      s      p      d    tot
  1  0.035  0.059  0.043  0.138
  2  0.011  0.336  0.003  0.350
tot  0.047  0.395  0.046  0.489
 
band   9 # energy    1.13821625 # occ.  2.00000000
 
ion      s      p      d    tot
  1  0.000  0.069  0.042  0.111
  2  0.000  0.409  0.001  0.411
tot  0.000  0.478  0.044  0.522
 
band  10 # energy    4.94100997 # occ.  0.00000000
 
ion      s      p      d    tot
  1  0.193  0.040  0.016  0.249
  2  0.062  0.132  0.030  0.225
tot  0.255  0.171  0.047  0.473
 
band  11 # energy    6.84516765 # occ.  0.00000000
 
ion      s      p      d    tot
  1  0.029  0.092  0.028  0.150
  2  0.009  0.085  0.061  0.155
tot  0.038  0.177  0.089  0.304
 
band  12 # energy    8.10869988 # occ.  0.00000000
 
ion      s      p      d    tot
  1  0.000  0.146  0.032  0.178
  2  0.000  0.068  0.094  0.161
tot  0.000  0.214  0.126  0.340
 
band  13 # energy    8.72300041 # occ.  0.00000000
 
ion      s      p      d    tot
  1  0.021  0.080  0.030  0.132
  2  0.018  0.157  0.050  0.226
tot  0.039  0.238  0.080  0.357
 

 k-point    8 :   -0.33333333 0.16666667 0.00000000     weight = 0.11111111

band   1 # energy   -8.53503740 # occ.  2.00000000
 
ion      s      p      d    tot
  1  0.018  0.010  0.088  0.116
  2  0.584  0.000  0.000  0.585
tot  0.602  0.010  0.088  0.701
 
band   2 # energy   -5.75000719 # occ.  2.00000000
 
ion      s      p      d    tot
  1  0.000  0.001  0.914  0.914
  2  0.000  0.017  0.001  0.018
tot  0.000  0.018  0.915  0.932
 
band   3 # energy   -5.74963933 # occ.  2.00000000
 
ion      s      p      d    tot
  1  0.000  0.000  0.913  0.913
  2  0.000  0.015  0.001  0.017
tot  0.000  0.016  0.914  0.930
 
band   4 # energy   -5.55656254 # occ.  2.00000000
 
ion      s      p      d    tot
  1  0.000  0.000  0.945  0.945
  2  0.000  0.000  0.001  0.001
tot  0.000  0.000  0.945  0.946
 
band   5 # energy   -5.55622629 # occ.  2.00000000
 
ion      s      p      d    tot
  1  0.000  0.000  0.942  0.942
  2  0.000  0.001  0.001  0.002
tot  0.001  0.001  0.943  0.944
 
band   6 # energy   -5.28766326 # occ.  2.00000000
 
ion      s      p      d    tot
  1  0.010  0.001  0.844  0.856
  2  0.053  0.009  0.001  0.062
tot  0.063  0.010  0.844  0.918
 
band   7 # energy   -1.75426952 # occ.  2.00000000
 
ion      s      p      d    tot
  1  0.176  0.022  0.026  0.224
  2  0.027  0.224  0.002  0.253
tot  0.203  0.246  0.029  0.477
 
band   8 # energy    0.42964002 # occ.  2.00000000
 
ion      s      p      d    tot
  1  0.030  0.062  0.040  0.133
  2  0.008  0.331  0.003  0.342
tot  0.038  0.393  0.044  0.475
 
band   9 # energy    1.44250839 # occ.  2.00000000
 
ion      s      p      d    tot
  1  0.000  0.062  0.051  0.113
  2  0.000  0.430  0.001  0.432
tot  0.000  0.493  0.052  0.545
 
band  10 # energy    4.99808029 # occ.  0.00000000
 
ion      s      p      d    tot
  1  0.206  0.045  0.011  0.261
  2  0.070  0.134  0.028  0.233
tot  0.276  0.179  0.039  0.494
 
band  11 # energy    7.08697490 # occ.  0.00000000
 
ion      s      p      d    tot
  1  0.015  0.088  0.030  0.133
  2  0.006  0.078  0.065  0.148
tot  0.020  0.166  0.095  0.281
 
band  12 # energy    7.80392217 # occ.  0.00000000
 
ion      s      p      d    tot
  1  0.000  0.173  0.024  0.196
  2  0.000  0.052  0.090  0.142
tot  0.000  0.225  0.113  0.338
 
band  13 # energy    8.49412038 # occ.  0.00000000
 
ion      s      p      d    tot
  1  0.035  0.064  0.024  0.122
  2  0.024  0.215  0.036  0.276
tot  0.059  0.279  0.060  0.398
 

 k-point    9 :   -0.16666667 0.16666667 0.00000000     weight = 0.05555556

band   1 # energy   -8.71172169 # occ.  2.00000000
 
ion      s      p      d    tot
  1  0.039  0.006  0.042  0.087
  2  0.581  0.000  0.000  0.581
tot  0.619  0.006  0.042  0.668
 
band   2 # energy   -5.78770194 # occ.  2.00000000
 
ion      s      p      d    tot
  1  0.000  0.000  0.907  0.908
  2  0.000  0.020  0.001  0.021
tot  0.000  0.020  0.908  0.928
 
band   3 # energy   -5.77285845 # occ.  2.00000000
 
ion      s      p      d    tot
  1  0.000  0.000  0.909  0.910
  2  0.000  0.018  0.001  0.019
tot  0.000  0.018  0.910  0.929
 
band   4 # energy   -5.62607361 # occ.  2.00000000
 
ion      s      p      d    tot
  1  0.009  0.000  0.868  0.877
  2  0.013  0.018  0.001  0.032
tot  0.022  0.018  0.869  0.909
 
band   5 # energy   -5.56313171 # occ.  2.00000000
 
ion      s      p      d    tot
  1  0.000  0.000  0.943  0.943
  2  0.000  0.000  0.001  0.001
tot  0.000  0.000  0.944  0.944
 
band   6 # energy   -5.53284392 # occ.  2.00000000
 
ion      s      p      d    tot
  1  0.002  0.000  0.935  0.937
  2  0.004  0.002  0.001  0.007
tot  0.006  0.002  0.936  0.944
 
band   7 # energy   -0.50706520 # occ.  2.00000000
 
ion      s      p      d    tot
  1  0.151  0.022  0.060  0.233
  2  0.070  0.235  0.002  0.306
tot  0.221  0.256  0.062  0.539
 
band   8 # energy    0.97320907 # occ.  2.00000000
 
ion      s      p      d    tot
  1  0.014  0.063  0.048  0.124
  2  0.001  0.366  0.004  0.371
tot  0.014  0.429  0.052  0.495
 
band   9 # energy    1.90319847 # occ.  2.00000000
 
ion      s      p      d    tot
  1  0.000  0.047  0.066  0.113
  2  0.000  0.465  0.001  0.466
tot  0.000  0.511  0.067  0.579
 
band  10 # energy    4.84038187 # occ.  0.00000000
 
ion      s      p      d    tot
  1  0.214  0.041  0.004  0.260
  2  0.098  0.168  0.015  0.281
tot  0.312  0.209  0.019  0.541
 
band  11 # energy    6.83990175 # occ.  0.00000000
 
ion      s      p      d    tot
  1  0.042  0.104  0.022  0.169
  2  0.025  0.102  0.056  0.183
tot  0.067  0.206  0.079  0.352
 
band  12 # energy    7.33944065 # occ.  0.00000000
 
ion      s      p      d    tot
  1  0.000  0.227  0.008  0.235
  2  0.000  0.030  0.088  0.118
tot  0.000  0.257  0.096  0.353
 
band  13 # energy    7.64633236 # occ.  0.00000000
 
ion      s      p      d    tot
  1  0.003  0.114  0.020  0.138
  2  0.002  0.109  0.068  0.179
tot  0.005  0.223  0.088  0.317
 

 k-point   10 :    0.33333333 0.33333333 0.00000000     weight = 0.02777778

band   1 # energy   -8.53700903 # occ.  2.00000000
 
ion      s      p      d    tot
  1  0.018  0.010  0.085  0.113
  2  0.585  0.000  0.000  0.586
tot  0.603  0.011  0.085  0.699
 
band   2 # energy   -5.70331049 # occ.  2.00000000
 
ion      s      p      d    tot
  1  0.000  0.001  0.923  0.924
  2  0.000  0.013  0.001  0.015
tot  0.000  0.014  0.924  0.939
 
band   3 # energy   -5.70331024 # occ.  2.00000000
 
ion      s      p      d    tot
  1  0.000  0.001  0.923  0.924
  2  0.000  0.013  0.001  0.015
tot  0.000  0.014  0.924  0.939
 
band   4 # energy   -5.65748337 # occ.  2.00000000
 
ion      s      p      d    tot
  1  0.003  0.000  0.899  0.903
  2  0.002  0.012  0.000  0.014
tot  0.006  0.012  0.900  0.917
 
band   5 # energy   -5.52806086 # occ.  2.00000000
 
ion      s      p      d    tot
  1  0.000  0.000  0.949  0.949
  2  0.000  0.000  0.000  0.000
tot  0.000  0.000  0.950  0.950
 
band   6 # energy   -5.39022960 # occ.  2.00000000
 
ion      s      p      d    tot
  1  0.011  0.001  0.845  0.857
  2  0.043  0.008  0.001  0.052
tot  0.054  0.009  0.846  0.909
 
band   7 # energy   -1.26498240 # occ.  2.00000000
 
ion      s      p      d    tot
  1  0.205  0.006  0.065  0.277
  2  0.051  0.213  0.003  0.267
tot  0.256  0.220  0.068  0.544
 
band   8 # energy    0.72682231 # occ.  2.00000000
 
ion      s      p      d    tot
  1  0.000  0.075  0.033  0.108
  2  0.000  0.383  0.001  0.384
tot  0.000  0.458  0.034  0.492
 
band   9 # energy    0.72682234 # occ.  2.00000000
 
ion      s      p      d    tot
  1  0.000  0.075  0.033  0.108
  2  0.000  0.383  0.001  0.384
tot  0.000  0.458  0.034  0.492
 
band  10 # energy    4.86970013 # occ.  0.00000000
 
ion      s      p      d    tot
  1  0.132  0.065  0.026  0.222
  2  0.008  0.043  0.053  0.104
tot  0.140  0.108  0.079  0.327
 
band  11 # energy    5.29418676 # occ.  0.00000000
 
ion      s      p      d    tot
  1  0.090  0.053  0.028  0.170
  2  0.054  0.105  0.029  0.189
tot  0.144  0.158  0.057  0.359
 
band  12 # energy    9.47401986 # occ.  0.00000000
 
ion      s      p      d    tot
  1  0.045  0.004  0.034  0.083
  2  0.040  0.187  0.039  0.266
tot  0.084  0.191  0.074  0.349
 
band  13 # energy    9.68323958 # occ.  0.00000000
 
ion      s      p      d    tot
  1  0.000  0.183  0.019  0.203
  2  0.000  0.146  0.090  0.235
tot  0.000  0.329  0.109  0.438
 

 k-point   11 :    0.50000000 0.33333333 0.00000000     weight = 0.11111111

band   1 # energy   -8.43391926 # occ.  2.00000000
 
ion      s      p      d    tot
  1  0.005  0.013  0.118  0.136
  2  0.584  0.000  0.000  0.585
tot  0.589  0.013  0.118  0.720
 
band   2 # energy   -5.70375158 # occ.  2.00000000
 
ion      s      p      d    tot
  1  0.001  0.001  0.916  0.917
  2  0.000  0.013  0.001  0.015
tot  0.001  0.014  0.917  0.931
 
band   3 # energy   -5.68052728 # occ.  2.00000000
 
ion      s      p      d    tot
  1  0.000  0.001  0.928  0.928
  2  0.000  0.012  0.001  0.013
tot  0.000  0.012  0.929  0.941
 
band   4 # energy   -5.62537977 # occ.  2.00000000
 
ion      s      p      d    tot
  1  0.001  0.000  0.927  0.928
  2  0.000  0.005  0.001  0.006
tot  0.001  0.005  0.928  0.934
 
band   5 # energy   -5.52924924 # occ.  2.00000000
 
ion      s      p      d    tot
  1  0.000  0.000  0.949  0.949
  2  0.000  0.000  0.000  0.000
tot  0.000  0.000  0.949  0.949
 
band   6 # energy   -5.14090897 # occ.  2.00000000
 
ion      s      p      d    tot
  1  0.005  0.003  0.824  0.833
  2  0.082  0.004  0.001  0.086
tot  0.087  0.007  0.825  0.919
 
band   7 # energy   -1.90111758 # occ.  2.00000000
 
ion      s      p      d    tot
  1  0.235  0.004  0.033  0.272
  2  0.014  0.215  0.004  0.233
tot  0.249  0.219  0.036  0.505
 
band   8 # energy    0.05029129 # occ.  2.00000000
 
ion      s      p      d    tot
  1  0.006  0.075  0.026  0.107
  2  0.001  0.332  0.002  0.335
tot  0.007  0.407  0.028  0.442
 
band   9 # energy    0.59105116 # occ.  2.00000000
 
ion      s      p      d    tot
  1  0.000  0.078  0.027  0.104
  2  0.000  0.380  0.001  0.381
tot  0.000  0.458  0.028  0.486
 
band  10 # energy    4.96202517 # occ.  0.00000000
 
ion      s      p      d    tot
  1  0.109  0.054  0.033  0.197
  2  0.027  0.058  0.044  0.130
tot  0.137  0.112  0.078  0.326
 
band  11 # energy    5.86161583 # occ.  0.00000000
 
ion      s      p      d    tot
  1  0.104  0.046  0.030  0.180
  2  0.020  0.133  0.044  0.197
tot  0.123  0.179  0.074  0.376
 
band  12 # energy    9.12686960 # occ.  0.00000000
 
ion      s      p      d    tot
  1  0.031  0.092  0.023  0.146
  2  0.028  0.142  0.057  0.227
tot  0.059  0.234  0.080  0.373
 
band  13 # energy    9.87319324 # occ.  0.00000000
 
ion      s      p      d    tot
  1  0.000  0.150  0.024  0.175
  2  0.000  0.130  0.095  0.225
tot  0.000  0.280  0.120  0.400
 

 k-point   12 :   -0.33333333 0.33333333 0.00000000     weight = 0.05555556

band   1 # energy   -8.43407286 # occ.  2.00000000
 
ion      s      p      d    tot
  1  0.004  0.013  0.119  0.137
  2  0.584  0.000  0.000  0.584
tot  0.588  0.013  0.119  0.721
 
band   2 # energy   -5.72394496 # occ.  2.00000000
 
ion      s      p      d    tot
  1  0.000  0.001  0.915  0.916
  2  0.000  0.013  0.001  0.014
tot  0.000  0.014  0.916  0.930
 
band   3 # energy   -5.70111370 # occ.  2.00000000
 
ion      s      p      d    tot
  1  0.000  0.001  0.923  0.924
  2  0.000  0.014  0.001  0.015
tot  0.000  0.014  0.924  0.939
 
band   4 # energy   -5.58286803 # occ.  2.00000000
 
ion      s      p      d    tot
  1  0.000  0.000  0.939  0.939
  2  0.000  0.001  0.001  0.002
tot  0.000  0.001  0.941  0.941
 
band   5 # energy   -5.54782239 # occ.  2.00000000
 
ion      s      p      d    tot
  1  0.000  0.000  0.946  0.946
  2  0.000  0.000  0.000  0.001
tot  0.000  0.000  0.946  0.946
 
band   6 # energy   -5.07566639 # occ.  2.00000000
 
ion      s      p      d    tot
  1  0.004  0.003  0.833  0.840
  2  0.087  0.002  0.000  0.090
tot  0.091  0.005  0.833  0.930
 
band   7 # energy   -1.94354420 # occ.  2.00000000
 
ion      s      p      d    tot
  1  0.241  0.007  0.010  0.258
  2  0.008  0.220  0.004  0.232
tot  0.249  0.227  0.014  0.490
 
band   8 # energy   -0.41403360 # occ.  2.00000000
 
ion      s      p      d    tot
  1  0.005  0.072  0.030  0.107
  2  0.001  0.303  0.001  0.305
tot  0.006  0.375  0.031  0.412
 
band   9 # energy    0.90681607 # occ.  2.00000000
 
ion      s      p      d    tot
  1  0.000  0.073  0.036  0.109
  2  0.000  0.397  0.001  0.398
tot  0.000  0.470  0.037  0.507
 
band  10 # energy    5.19465821 # occ.  0.00000000
 
ion      s      p      d    tot
  1  0.136  0.055  0.027  0.219
  2  0.035  0.073  0.043  0.151
tot  0.171  0.129  0.070  0.369
 
band  11 # energy    7.28434635 # occ.  0.00000000
 
ion      s      p      d    tot
  1  0.109  0.020  0.014  0.143
  2  0.000  0.262  0.046  0.308
tot  0.109  0.282  0.060  0.451
 
band  12 # energy    9.01905165 # occ.  0.00000000
 
ion      s      p      d    tot
  1  0.000  0.156  0.020  0.176
  2  0.000  0.106  0.091  0.197
tot  0.000  0.262  0.112  0.373
 
band  13 # energy    9.13556340 # occ.  0.00000000
 
ion      s      p      d    tot
  1  0.017  0.054  0.046  0.117
  2  0.030  0.168  0.046  0.245
tot  0.047  0.222  0.093  0.362
 

 k-point   13 :    0.50000000 0.50000000 0.00000000     weight = 0.01388889

band   1 # energy   -8.39978455 # occ.  2.00000000
 
ion      s      p      d    tot
  1  0.000  0.014  0.129  0.143
  2  0.584  0.000  0.000  0.584
tot  0.584  0.014  0.129  0.727
 
band   2 # energy   -5.67013128 # occ.  2.00000000
 
ion      s      p      d    tot
  1  0.002  0.000  0.907  0.909
  2  0.000  0.010  0.000  0.010