 running on    4 total cores
 distrk:  each k-point on    1 cores,    4 groups
 distr:  one band on    1 cores,    1 groups
 using from now: INCAR     
 vasp.5.4.1 24Jun15 (build Nov 25 2015 16:01:35) complex                        
  
 POSCAR found type information on POSCAR  Cd Te
 POSCAR found :  2 types and       2 ions
 scaLAPACK will be used

 ----------------------------------------------------------------------------- 
|                                                                             |
|           W    W    AA    RRRRR   N    N  II  N    N   GGGG   !!!           |
|           W    W   A  A   R    R  NN   N  II  NN   N  G    G  !!!           |
|           W    W  A    A  R    R  N N  N  II  N N  N  G       !!!           |
|           W WW W  AAAAAA  RRRRR   N  N N  II  N  N N  G  GGG   !            |
|           WW  WW  A    A  R   R   N   NN  II  N   NN  G    G                |
|           W    W  A    A  R    R  N    N  II  N    N   GGGG   !!!           |
|                                                                             |
|      You have enabled k-point parallelism (KPAR>1).                         |
|      This developmental code was originally  written by Paul Kent at ORNL,  |
|      and carefully double checked in Vienna.                                |
|      GW as well as linear response parallelism added by Martijn Marsman     |
|      and Georg Kresse.                                                      |
|      Carefully verify results versus KPAR=1.                                |
|      Report problems to Paul Kent and Vienna.                               |
|                                                                             |
 ----------------------------------------------------------------------------- 


 ----------------------------------------------------------------------------- 
|                                                                             |
|  ADVICE TO THIS USER RUNNING 'VASP/VAMP'   (HEAR YOUR MASTER'S VOICE ...):  |
|                                                                             |
|      You enforced a specific xc-type in the INCAR file,                     |
|      a different type was found on the POTCAR file                          |
|          I HOPE YOU KNOW, WHAT YOU ARE  DOING                               |
|                                                                             |
 ----------------------------------------------------------------------------- 

 LDA part: xc-table for Pade appr. of Perdew
 WARNING: stress and forces are not correct
 POSCAR, INCAR and KPOINTS ok, starting setup
 FFT: planning ...
 WAVECAR not read
 charge-density read from file: Name                                    
 WARNING: random wavefunctions but no delay for mixing, default for NELMDL
 entering main loop
       N       E                     dE             d eps       ncg     rms          rms(c)
DAV:   1     0.987280004624E+02    0.98728E+02   -0.81995E+03   754   0.116E+03
DAV:   2    -0.164306561596E+01   -0.10037E+03   -0.96592E+02   859   0.273E+02
DAV:   3    -0.545802446534E+01   -0.38150E+01   -0.38091E+01   879   0.561E+01
DAV:   4    -0.549302876187E+01   -0.35004E-01   -0.35001E-01  1070   0.484E+00
DAV:   5    -0.549324928038E+01   -0.22052E-03   -0.22052E-03   904   0.281E-01
DAV:   6    -0.549325759427E+01   -0.83139E-05   -0.83139E-05  1049   0.329E-02
DAV:   7    -0.549325797298E+01   -0.37870E-06   -0.37872E-06   666   0.430E-03
   1 F= -.54932580E+01 E0= -.54932580E+01  d E =-.549326E+01
 curvature:   0.00 expect dE= 0.000E+00 dE for cont linesearch  0.000E+00
 trial: gam= 0.00000 g(F)=  0.329E-47 g(S)=  0.718E+00 ort = 0.000E+00 (trialstep = 0.100E+01)
 search vector abs. value=  0.718E+00
 writing wavefunctions
Application 23183392 resources: utime ~116s, stime ~4s, Rss ~97216, inblocks ~112255, outblocks ~227418
