  96  96   0   0
  0.2080188E+02  0.1257760E-08  0.1245754E-08  0.1274818E-08  0.5000000E-15
  1.000000000000000E-004
  CAR 
 MAPbI3-Cubic                            
      8.85680739    -19.45023573  301      1.35544096      1.00000000
    -19.450  0.0000E+00  0.0000E+00
    -19.356  0.0000E+00  0.0000E+00
    -19.262  0.0000E+00  0.0000E+00
    -19.167  0.0000E+00  0.0000E+00
    -19.073  0.0000E+00  0.0000E+00
    -18.978  0.0000E+00  0.0000E+00
    -18.884  0.0000E+00  0.0000E+00
    -18.790  0.0000E+00  0.0000E+00
    -18.695  0.0000E+00  0.0000E+00
    -18.601  0.0000E+00  0.0000E+00
    -18.507  0.0000E+00  0.0000E+00
    -18.412  0.0000E+00  0.0000E+00
    -18.318  0.0000E+00  0.0000E+00
    -18.224  0.0000E+00  0.0000E+00
    -18.129  0.0000E+00  0.1600E+02
    -18.035  0.0000E+00  0.1600E+02
    -17.941  0.0000E+00  0.1600E+02
    -17.846  0.0000E+00  0.1600E+02
    -17.752  0.0000E+00  0.1600E+02
    -17.657  0.0000E+00  0.1600E+02
    -17.563  0.0000E+00  0.1600E+02
    -17.469  0.0000E+00  0.1600E+02
    -17.374  0.0000E+00  0.1600E+02
    -17.280  0.0000E+00  0.1600E+02
    -17.186  0.0000E+00  0.1600E+02
    -17.091  0.0000E+00  0.1600E+02
    -16.997  0.0000E+00  0.1600E+02
    -16.903  0.0000E+00  0.1600E+02
    -16.808  0.0000E+00  0.1600E+02
    -16.714  0.0000E+00  0.1600E+02
    -16.620  0.0000E+00  0.1600E+02
    -16.525  0.0000E+00  0.1600E+02
    -16.431  0.0000E+00  0.1600E+02
    -16.336  0.0000E+00  0.1600E+02
    -16.242  0.0000E+00  0.1600E+02
    -16.148  0.0000E+00  0.1600E+02
    -16.053  0.0000E+00  0.1600E+02
    -15.959  0.0000E+00  0.1600E+02
    -15.865  0.0000E+00  0.1600E+02
    -15.770  0.0000E+00  0.1600E+02
    -15.676  0.0000E+00  0.1600E+02
    -15.582  0.0000E+00  0.1600E+02
    -15.487  0.0000E+00  0.1600E+02
    -15.393  0.0000E+00  0.1600E+02
    -15.299  0.0000E+00  0.1600E+02
    -15.204  0.0000E+00  0.1600E+02
    -15.110  0.8279E+02  0.3092E+02
    -15.015  0.0000E+00  0.9600E+02
    -14.921  0.0000E+00  0.9600E+02
    -14.827  0.0000E+00  0.9600E+02
    -14.732  0.0000E+00  0.9600E+02
    -14.638  0.0000E+00  0.9600E+02
    -14.544  0.0000E+00  0.9600E+02
    -14.449  0.0000E+00  0.9600E+02
    -14.355  0.0000E+00  0.9600E+02
    -14.261  0.0000E+00  0.9600E+02
    -14.166  0.0000E+00  0.9600E+02
    -14.072  0.0000E+00  0.9600E+02
    -13.978  0.0000E+00  0.9600E+02
    -13.883  0.0000E+00  0.9600E+02
    -13.789  0.0000E+00  0.9600E+02
    -13.694  0.0000E+00  0.9600E+02
    -13.600  0.0000E+00  0.9600E+02
    -13.506  0.0000E+00  0.9600E+02
    -13.411  0.0000E+00  0.9600E+02
    -13.317  0.0000E+00  0.9600E+02
    -13.223  0.0000E+00  0.9600E+02
    -13.128  0.0000E+00  0.9600E+02
    -13.034  0.0000E+00  0.9600E+02
    -12.940  0.0000E+00  0.9600E+02
    -12.845  0.0000E+00  0.9600E+02
    -12.751  0.0000E+00  0.9600E+02
    -12.657  0.0000E+00  0.9600E+02
    -12.562  0.0000E+00  0.9600E+02
    -12.468  0.0000E+00  0.9600E+02
    -12.373  0.0000E+00  0.9600E+02
    -12.279  0.0000E+00  0.9600E+02
    -12.185  0.0000E+00  0.9600E+02
    -12.090  0.0000E+00  0.9600E+02
    -11.996  0.0000E+00  0.9600E+02
    -11.902  0.0000E+00  0.9600E+02
    -11.807  0.0000E+00  0.9600E+02
    -11.713  0.0000E+00  0.9600E+02
    -11.619  0.0000E+00  0.9600E+02
    -11.524  0.0000E+00  0.9600E+02
    -11.430  0.0000E+00  0.9600E+02
    -11.336  0.6749E+00  0.9606E+02
    -11.241  0.0000E+00  0.1040E+03
    -11.147  0.0000E+00  0.1120E+03
    -11.052  0.0000E+00  0.1120E+03
    -10.958  0.0000E+00  0.1120E+03
    -10.864  0.0000E+00  0.1120E+03
    -10.769  0.0000E+00  0.1125E+03
    -10.675  0.1570E+01  0.1150E+03
    -10.581  0.1925E+01  0.1200E+03
    -10.486  0.3974E+01  0.1267E+03
    -10.392  0.3140E+01  0.1291E+03
    -10.298  0.4708E+01  0.1361E+03
    -10.203  0.2679E-08  0.1400E+03
    -10.109  0.0000E+00  0.1442E+03
    -10.015  0.3649E-02  0.1541E+03
     -9.920  0.4635E+01  0.1600E+03
     -9.826  0.0000E+00  0.1600E+03
     -9.731  0.0000E+00  0.1600E+03
     -9.637  0.0000E+00  0.1600E+03
     -9.543  0.0000E+00  0.1600E+03
     -9.448  0.0000E+00  0.1600E+03
     -9.354  0.0000E+00  0.1600E+03
     -9.260  0.0000E+00  0.1600E+03
     -9.165  0.0000E+00  0.1600E+03
     -9.071  0.0000E+00  0.1600E+03
     -8.977  0.0000E+00  0.1600E+03
     -8.882  0.0000E+00  0.1600E+03
     -8.788  0.0000E+00  0.1600E+03
     -8.694  0.0000E+00  0.1600E+03
     -8.599  0.0000E+00  0.1600E+03
     -8.505  0.0000E+00  0.1600E+03
     -8.410  0.0000E+00  0.1600E+03
     -8.316  0.0000E+00  0.1600E+03
     -8.222  0.0000E+00  0.1600E+03
     -8.127  0.0000E+00  0.1600E+03
     -8.033  0.0000E+00  0.1600E+03
     -7.939  0.0000E+00  0.1600E+03
     -7.844  0.0000E+00  0.1600E+03
     -7.750  0.0000E+00  0.1600E+03
     -7.656  0.7850E+01  0.1680E+03
     -7.561  0.0000E+00  0.1840E+03
     -7.467  0.0000E+00  0.1920E+03
     -7.373  0.0000E+00  0.1920E+03
     -7.278  0.0000E+00  0.1920E+03
     -7.184  0.0000E+00  0.1920E+03
     -7.089  0.0000E+00  0.1920E+03
     -6.995  0.0000E+00  0.1921E+03
     -6.901  0.1570E+01  0.1925E+03
     -6.806  0.1224E-10  0.1925E+03
     -6.712  0.0000E+00  0.1934E+03
     -6.618  0.1570E+01  0.1944E+03
     -6.523  0.0000E+00  0.1956E+03
     -6.429  0.6280E+01  0.1970E+03
     -6.335  0.0000E+00  0.1991E+03
     -6.240  0.1366E+01  0.2009E+03
     -6.146  0.0000E+00  0.2030E+03
     -6.052  0.4647E+01  0.2040E+03
     -5.957  0.3849E+00  0.2055E+03
     -5.863  0.0000E+00  0.2066E+03
     -5.768  0.3395E+01  0.2142E+03
     -5.674  0.1355E+02  0.2172E+03
     -5.580  0.0000E+00  0.2235E+03
     -5.485  0.0000E+00  0.2239E+03
     -5.391  0.0000E+00  0.2240E+03
     -5.297  0.0000E+00  0.2240E+03
     -5.202  0.0000E+00  0.2240E+03
     -5.108  0.0000E+00  0.2240E+03
     -5.014  0.0000E+00  0.2240E+03
     -4.919  0.0000E+00  0.2240E+03
     -4.825  0.0000E+00  0.2240E+03
     -4.731  0.0000E+00  0.2240E+03
     -4.636  0.0000E+00  0.2240E+03
     -4.542  0.0000E+00  0.2240E+03
     -4.448  0.0000E+00  0.2240E+03
     -4.353  0.0000E+00  0.2240E+03
     -4.259  0.0000E+00  0.2240E+03
     -4.164  0.0000E+00  0.2240E+03
     -4.070  0.0000E+00  0.2240E+03
     -3.976  0.0000E+00  0.2240E+03
     -3.881  0.0000E+00  0.2240E+03
     -3.787  0.0000E+00  0.2240E+03
     -3.693  0.0000E+00  0.2240E+03
     -3.598  0.1678E+01  0.2242E+03
     -3.504  0.2378E+02  0.2429E+03
     -3.410  0.0000E+00  0.2560E+03
     -3.315  0.0000E+00  0.2560E+03
     -3.221  0.0000E+00  0.2560E+03
     -3.127  0.0000E+00  0.2560E+03
     -3.032  0.0000E+00  0.2560E+03
     -2.938  0.0000E+00  0.2560E+03
     -2.843  0.0000E+00  0.2560E+03
     -2.749  0.0000E+00  0.2560E+03
     -2.655  0.0000E+00  0.2560E+03
     -2.560  0.0000E+00  0.2560E+03
     -2.466  0.0000E+00  0.2560E+03
     -2.372  0.0000E+00  0.2560E+03
     -2.277  0.0000E+00  0.2560E+03
     -2.183  0.0000E+00  0.2560E+03
     -2.089  0.4802E+01  0.2565E+03
     -1.994  0.3121E+01  0.2589E+03
     -1.900  0.1570E+01  0.2613E+03
     -1.806  0.1570E+01  0.2635E+03
     -1.711  0.1572E+01  0.2659E+03
     -1.617  0.1570E+01  0.2689E+03
     -1.522  0.3140E+01  0.2726E+03
     -1.428  0.4382E+01  0.2763E+03
     -1.334  0.3140E+01  0.2791E+03
     -1.239  0.0000E+00  0.2799E+03
     -1.145  0.0000E+00  0.2800E+03
     -1.051  0.0000E+00  0.2800E+03
     -0.956  0.1491E-02  0.2811E+03
     -0.862  0.5751E+00  0.2861E+03
     -0.768  0.4549E+01  0.2928E+03
     -0.673  0.6215E+01  0.2984E+03
     -0.579  0.2240E+01  0.3025E+03
     -0.485  0.3672E+01  0.3061E+03
     -0.390  0.0000E+00  0.3097E+03
     -0.296  0.9268E+01  0.3154E+03
     -0.201  0.9420E+01  0.3221E+03
     -0.107  0.3925E+01  0.3284E+03
     -0.013  0.8170E+01  0.3340E+03
      0.082  0.4126E+01  0.3405E+03
      0.176  0.2880E+01  0.3489E+03
      0.270  0.3302E+01  0.3591E+03
      0.365  0.7412E+01  0.3664E+03
      0.459  0.1223E+02  0.3740E+03
      0.553  0.2891E+01  0.3821E+03
      0.648  0.5805E+01  0.3888E+03
      0.742  0.1516E+01  0.3937E+03
      0.836  0.0000E+00  0.3967E+03
      0.931  0.2949E+01  0.3985E+03
      1.025  0.0000E+00  0.3993E+03
      1.120  0.9944E-08  0.3996E+03
      1.214  0.0000E+00  0.3999E+03
      1.308  0.0000E+00  0.3999E+03
      1.403  0.0000E+00  0.4000E+03
      1.497  0.0000E+00  0.4000E+03
      1.591  0.0000E+00  0.4000E+03
      1.686  0.0000E+00  0.4000E+03
      1.780  0.0000E+00  0.4000E+03
      1.874  0.0000E+00  0.4000E+03
      1.969  0.0000E+00  0.4000E+03
      2.063  0.0000E+00  0.4000E+03
      2.157  0.0000E+00  0.4000E+03
      2.252  0.0000E+00  0.4000E+03
      2.346  0.0000E+00  0.4000E+03
      2.441  0.0000E+00  0.4000E+03
      2.535  0.0000E+00  0.4000E+03
      2.629  0.0000E+00  0.4000E+03
      2.724  0.0000E+00  0.4000E+03
      2.818  0.0000E+00  0.4000E+03
      2.912  0.0000E+00  0.4000E+03
      3.007  0.0000E+00  0.4005E+03
      3.101  0.0000E+00  0.4007E+03
      3.195  0.6280E+01  0.4021E+03
      3.290  0.3925E+01  0.4033E+03
      3.384  0.1272E+01  0.4040E+03
      3.478  0.9186E-13  0.4059E+03
      3.573  0.0000E+00  0.4067E+03
      3.667  0.9245E+00  0.4078E+03
      3.762  0.7850E+00  0.4084E+03
      3.856  0.0000E+00  0.4093E+03
      3.950  0.3142E+01  0.4105E+03
      4.045  0.1570E+01  0.4121E+03
      4.139  0.6280E+01  0.4145E+03
      4.233  0.7409E+00  0.4159E+03
      4.328  0.1563E+01  0.4187E+03
      4.422  0.3140E+01  0.4213E+03
      4.516  0.1570E+01  0.4233E+03
      4.611  0.0000E+00  0.4239E+03
      4.705  0.0000E+00  0.4240E+03
      4.799  0.0000E+00  0.4240E+03
      4.894  0.0000E+00  0.4240E+03
      4.988  0.0000E+00  0.4240E+03
      5.083  0.0000E+00  0.4241E+03
      5.177  0.0000E+00  0.4245E+03
      5.271  0.3140E+01  0.4269E+03
      5.366  0.1571E+01  0.4292E+03
      5.460  0.0000E+00  0.4329E+03
      5.554  0.4695E+01  0.4363E+03
      5.649  0.0000E+00  0.4388E+03
      5.743  0.1917E-02  0.4412E+03
      5.837  0.2365E+00  0.4434E+03
      5.932  0.1559E+01  0.4456E+03
      6.026  0.1570E+01  0.4484E+03
      6.120  0.3140E+01  0.4527E+03
      6.215  0.3112E+01  0.4569E+03
      6.309  0.1720E+01  0.4604E+03
      6.404  0.6194E+01  0.4633E+03
      6.498  0.1021E+02  0.4683E+03
      6.592  0.1570E+01  0.4727E+03
      6.687  0.1635E+01  0.4770E+03
      6.781  0.6732E+01  0.4812E+03
      6.875  0.1570E+01  0.4852E+03
      6.970  0.7065E+01  0.4882E+03
      7.064  0.2669E+01  0.4907E+03
      7.158  0.2424E+01  0.4967E+03
      7.253  0.3868E-02  0.5014E+03
      7.347  0.1570E+01  0.5047E+03
      7.441  0.1570E+01  0.5094E+03
      7.536  0.2441E+00  0.5117E+03
      7.630  0.0000E+00  0.5120E+03
      7.725  0.0000E+00  0.5120E+03
      7.819  0.0000E+00  0.5120E+03
      7.913  0.0000E+00  0.5120E+03
      8.008  0.0000E+00  0.5120E+03
      8.102  0.0000E+00  0.5120E+03
      8.196  0.0000E+00  0.5120E+03
      8.291  0.0000E+00  0.5120E+03
      8.385  0.0000E+00  0.5120E+03
      8.479  0.0000E+00  0.5120E+03
      8.574  0.0000E+00  0.5120E+03
      8.668  0.0000E+00  0.5120E+03
      8.762  0.0000E+00  0.5120E+03
      8.857  0.0000E+00  0.5120E+03
