  96  96   0   0
  0.2080188E+02  0.1257760E-08  0.1245754E-08  0.1274818E-08  0.5000000E-15
  1.000000000000000E-004
  CAR 
 MAPbI3-Cubic                            
      8.82955153    -19.44895390  301      1.33574759      1.00000000
    -19.449  0.0000E+00  0.0000E+00
    -19.355  0.0000E+00  0.0000E+00
    -19.260  0.0000E+00  0.0000E+00
    -19.166  0.0000E+00  0.0000E+00
    -19.072  0.0000E+00  0.0000E+00
    -18.978  0.0000E+00  0.0000E+00
    -18.883  0.0000E+00  0.0000E+00
    -18.789  0.0000E+00  0.0000E+00
    -18.695  0.0000E+00  0.0000E+00
    -18.601  0.0000E+00  0.0000E+00
    -18.506  0.0000E+00  0.0000E+00
    -18.412  0.0000E+00  0.0000E+00
    -18.318  0.0000E+00  0.0000E+00
    -18.224  0.0000E+00  0.0000E+00
    -18.129  0.0000E+00  0.1600E+02
    -18.035  0.0000E+00  0.1600E+02
    -17.941  0.0000E+00  0.1600E+02
    -17.847  0.0000E+00  0.1600E+02
    -17.752  0.0000E+00  0.1600E+02
    -17.658  0.0000E+00  0.1600E+02
    -17.564  0.0000E+00  0.1600E+02
    -17.469  0.0000E+00  0.1600E+02
    -17.375  0.0000E+00  0.1600E+02
    -17.281  0.0000E+00  0.1600E+02
    -17.187  0.0000E+00  0.1600E+02
    -17.092  0.0000E+00  0.1600E+02
    -16.998  0.0000E+00  0.1600E+02
    -16.904  0.0000E+00  0.1600E+02
    -16.810  0.0000E+00  0.1600E+02
    -16.715  0.0000E+00  0.1600E+02
    -16.621  0.0000E+00  0.1600E+02
    -16.527  0.0000E+00  0.1600E+02
    -16.433  0.0000E+00  0.1600E+02
    -16.338  0.0000E+00  0.1600E+02
    -16.244  0.0000E+00  0.1600E+02
    -16.150  0.0000E+00  0.1600E+02
    -16.056  0.0000E+00  0.1600E+02
    -15.961  0.0000E+00  0.1600E+02
    -15.867  0.0000E+00  0.1600E+02
    -15.773  0.0000E+00  0.1600E+02
    -15.678  0.0000E+00  0.1600E+02
    -15.584  0.0000E+00  0.1600E+02
    -15.490  0.0000E+00  0.1600E+02
    -15.396  0.0000E+00  0.1600E+02
    -15.301  0.0000E+00  0.1600E+02
    -15.207  0.0000E+00  0.1600E+02
    -15.113  0.8446E+02  0.2841E+02
    -15.019  0.0000E+00  0.9600E+02
    -14.924  0.0000E+00  0.9600E+02
    -14.830  0.0000E+00  0.9600E+02
    -14.736  0.0000E+00  0.9600E+02
    -14.642  0.0000E+00  0.9600E+02
    -14.547  0.0000E+00  0.9600E+02
    -14.453  0.0000E+00  0.9600E+02
    -14.359  0.0000E+00  0.9600E+02
    -14.265  0.0000E+00  0.9600E+02
    -14.170  0.0000E+00  0.9600E+02
    -14.076  0.0000E+00  0.9600E+02
    -13.982  0.0000E+00  0.9600E+02
    -13.888  0.0000E+00  0.9600E+02
    -13.793  0.0000E+00  0.9600E+02
    -13.699  0.0000E+00  0.9600E+02
    -13.605  0.0000E+00  0.9600E+02
    -13.510  0.0000E+00  0.9600E+02
    -13.416  0.0000E+00  0.9600E+02
    -13.322  0.0000E+00  0.9600E+02
    -13.228  0.0000E+00  0.9600E+02
    -13.133  0.0000E+00  0.9600E+02
    -13.039  0.0000E+00  0.9600E+02
    -12.945  0.0000E+00  0.9600E+02
    -12.851  0.0000E+00  0.9600E+02
    -12.756  0.0000E+00  0.9600E+02
    -12.662  0.0000E+00  0.9600E+02
    -12.568  0.0000E+00  0.9600E+02
    -12.474  0.0000E+00  0.9600E+02
    -12.379  0.0000E+00  0.9600E+02
    -12.285  0.0000E+00  0.9600E+02
    -12.191  0.0000E+00  0.9600E+02
    -12.097  0.0000E+00  0.9600E+02
    -12.002  0.0000E+00  0.9600E+02
    -11.908  0.0000E+00  0.9600E+02
    -11.814  0.0000E+00  0.9600E+02
    -11.719  0.0000E+00  0.9600E+02
    -11.625  0.0000E+00  0.9600E+02
    -11.531  0.0000E+00  0.9600E+02
    -11.437  0.0000E+00  0.9600E+02
    -11.342  0.0000E+00  0.9600E+02
    -11.248  0.0000E+00  0.1040E+03
    -11.154  0.0000E+00  0.1120E+03
    -11.060  0.0000E+00  0.1120E+03
    -10.965  0.0000E+00  0.1120E+03
    -10.871  0.0000E+00  0.1120E+03
    -10.777  0.1572E+01  0.1125E+03
    -10.683  0.7922E+01  0.1149E+03
    -10.588  0.1572E+01  0.1198E+03
    -10.494  0.4435E+01  0.1263E+03
    -10.400  0.5844E+00  0.1289E+03
    -10.306  0.1580E-06  0.1357E+03
    -10.211  0.0000E+00  0.1400E+03
    -10.117  0.2349E+01  0.1442E+03
    -10.023  0.1572E+02  0.1541E+03
     -9.929  0.3412E-08  0.1596E+03
     -9.834  0.0000E+00  0.1600E+03
     -9.740  0.0000E+00  0.1600E+03
     -9.646  0.0000E+00  0.1600E+03
     -9.551  0.0000E+00  0.1600E+03
     -9.457  0.0000E+00  0.1600E+03
     -9.363  0.0000E+00  0.1600E+03
     -9.269  0.0000E+00  0.1600E+03
     -9.174  0.0000E+00  0.1600E+03
     -9.080  0.0000E+00  0.1600E+03
     -8.986  0.0000E+00  0.1600E+03
     -8.892  0.0000E+00  0.1600E+03
     -8.797  0.0000E+00  0.1600E+03
     -8.703  0.0000E+00  0.1600E+03
     -8.609  0.0000E+00  0.1600E+03
     -8.515  0.0000E+00  0.1600E+03
     -8.420  0.0000E+00  0.1600E+03
     -8.326  0.0000E+00  0.1600E+03
     -8.232  0.0000E+00  0.1600E+03
     -8.138  0.0000E+00  0.1600E+03
     -8.043  0.0000E+00  0.1600E+03
     -7.949  0.0000E+00  0.1600E+03
     -7.855  0.0000E+00  0.1600E+03
     -7.761  0.0000E+00  0.1600E+03
     -7.666  0.2822E+02  0.1653E+03
     -7.572  0.2358E+01  0.1840E+03
     -7.478  0.0000E+00  0.1920E+03
     -7.383  0.0000E+00  0.1920E+03
     -7.289  0.0000E+00  0.1920E+03
     -7.195  0.0000E+00  0.1920E+03
     -7.101  0.0000E+00  0.1920E+03
     -7.006  0.0000E+00  0.1921E+03
     -6.912  0.3143E+01  0.1924E+03
     -6.818  0.0000E+00  0.1925E+03
     -6.724  0.0000E+00  0.1934E+03
     -6.629  0.0000E+00  0.1943E+03
     -6.535  0.4716E+01  0.1953E+03
     -6.441  0.3490E-15  0.1964E+03
     -6.347  0.1572E+01  0.1991E+03
     -6.252  0.4688E+01  0.2007E+03
     -6.158  0.3364E+01  0.2024E+03
     -6.064  0.0000E+00  0.2036E+03
     -5.970  0.7858E+00  0.2055E+03
     -5.875  0.1572E+01  0.2066E+03
     -5.781  0.3108E+02  0.2135E+03
     -5.687  0.3143E+01  0.2159E+03
     -5.592  0.0000E+00  0.2235E+03
     -5.498  0.0000E+00  0.2239E+03
     -5.404  0.0000E+00  0.2240E+03
     -5.310  0.0000E+00  0.2240E+03
     -5.215  0.0000E+00  0.2240E+03
     -5.121  0.0000E+00  0.2240E+03
     -5.027  0.0000E+00  0.2240E+03
     -4.933  0.0000E+00  0.2240E+03
     -4.838  0.0000E+00  0.2240E+03
     -4.744  0.0000E+00  0.2240E+03
     -4.650  0.0000E+00  0.2240E+03
     -4.556  0.0000E+00  0.2240E+03
     -4.461  0.0000E+00  0.2240E+03
     -4.367  0.0000E+00  0.2240E+03
     -4.273  0.0000E+00  0.2240E+03
     -4.179  0.0000E+00  0.2240E+03
     -4.084  0.0000E+00  0.2240E+03
     -3.990  0.0000E+00  0.2240E+03
     -3.896  0.0000E+00  0.2240E+03
     -3.802  0.0000E+00  0.2240E+03
     -3.707  0.0000E+00  0.2240E+03
     -3.613  0.0000E+00  0.2240E+03
     -3.519  0.4354E+02  0.2399E+03
     -3.424  0.0000E+00  0.2560E+03
     -3.330  0.0000E+00  0.2560E+03
     -3.236  0.0000E+00  0.2560E+03
     -3.142  0.0000E+00  0.2560E+03
     -3.047  0.0000E+00  0.2560E+03
     -2.953  0.0000E+00  0.2560E+03
     -2.859  0.0000E+00  0.2560E+03
     -2.765  0.0000E+00  0.2560E+03
     -2.670  0.0000E+00  0.2560E+03
     -2.576  0.0000E+00  0.2560E+03
     -2.482  0.0000E+00  0.2560E+03
     -2.388  0.0000E+00  0.2560E+03
     -2.293  0.0000E+00  0.2560E+03
     -2.199  0.0000E+00  0.2560E+03
     -2.105  0.7858E+00  0.2561E+03
     -2.011  0.7858E+00  0.2581E+03
     -1.916  0.5551E+01  0.2609E+03
     -1.822  0.3929E+01  0.2632E+03
     -1.728  0.3154E+01  0.2656E+03
     -1.633  0.6287E+01  0.2687E+03
     -1.539  0.1572E+01  0.2720E+03
     -1.445  0.6109E+01  0.2754E+03
     -1.351  0.1146E+01  0.2786E+03
     -1.256  0.3143E+01  0.2799E+03
     -1.162  0.0000E+00  0.2800E+03
     -1.068  0.0000E+00  0.2800E+03
     -0.974  0.1572E+01  0.2811E+03
     -0.879  0.7858E+01  0.2858E+03
     -0.785  0.3143E+01  0.2919E+03
     -0.691  0.7858E+01  0.2965E+03
     -0.597  0.2768E+01  0.3020E+03
     -0.502  0.6282E+01  0.3051E+03
     -0.408  0.7858E+01  0.3094E+03
     -0.314  0.1179E+02  0.3143E+03
     -0.220  0.2778E+01  0.3206E+03
     -0.125  0.7858E+01  0.3273E+03
     -0.031  0.3140E+01  0.3330E+03
      0.063  0.3962E+01  0.3393E+03
      0.157  0.4408E+01  0.3479E+03
      0.252  0.1154E+02  0.3581E+03
      0.346  0.1812E+01  0.3645E+03
      0.440  0.1144E+02  0.3715E+03
      0.535  0.6467E+01  0.3810E+03
      0.629  0.3256E+01  0.3873E+03
      0.723  0.8209E+01  0.3931E+03
      0.817  0.0000E+00  0.3963E+03
      0.912  0.7858E+00  0.3982E+03
      1.006  0.0000E+00  0.3993E+03
      1.100  0.2844E+01  0.3995E+03
      1.194  0.1572E+01  0.3999E+03
      1.289  0.0000E+00  0.3999E+03
      1.383  0.0000E+00  0.4000E+03
      1.477  0.0000E+00  0.4000E+03
      1.571  0.0000E+00  0.4000E+03
      1.666  0.0000E+00  0.4000E+03
      1.760  0.0000E+00  0.4000E+03
      1.854  0.0000E+00  0.4000E+03
      1.948  0.0000E+00  0.4000E+03
      2.043  0.0000E+00  0.4000E+03
      2.137  0.0000E+00  0.4000E+03
      2.231  0.0000E+00  0.4000E+03
      2.325  0.0000E+00  0.4000E+03
      2.420  0.0000E+00  0.4000E+03
      2.514  0.0000E+00  0.4000E+03
      2.608  0.0000E+00  0.4000E+03
      2.703  0.0000E+00  0.4000E+03
      2.797  0.0000E+00  0.4000E+03
      2.891  0.0000E+00  0.4000E+03
      2.985  0.1572E+01  0.4002E+03
      3.080  0.0000E+00  0.4007E+03
      3.174  0.0000E+00  0.4012E+03
      3.268  0.0000E+00  0.4029E+03
      3.362  0.0000E+00  0.4036E+03
      3.457  0.3132E+01  0.4059E+03
      3.551  0.0000E+00  0.4067E+03
      3.645  0.0000E+00  0.4077E+03
      3.739  0.1501E+01  0.4083E+03
      3.834  0.7858E+00  0.4090E+03
      3.928  0.0000E+00  0.4102E+03
      4.022  0.4450E-14  0.4108E+03
      4.116  0.0000E+00  0.4136E+03
      4.211  0.1572E+01  0.4157E+03
      4.305  0.3428E+01  0.4181E+03
      4.399  0.1533E+01  0.4209E+03
      4.494  0.3242E+01  0.4230E+03
      4.588  0.0000E+00  0.4239E+03
      4.682  0.0000E+00  0.4240E+03
      4.776  0.0000E+00  0.4240E+03
      4.871  0.0000E+00  0.4240E+03
      4.965  0.0000E+00  0.4240E+03
      5.059  0.0000E+00  0.4241E+03
      5.153  0.1159E+00  0.4242E+03
      5.248  0.0000E+00  0.4260E+03
      5.342  0.6760E+00  0.4285E+03
      5.436  0.1968E+01  0.4319E+03
      5.530  0.1572E+01  0.4356E+03
      5.625  0.0000E+00  0.4388E+03
      5.719  0.3143E+01  0.4409E+03
      5.813  0.6322E+00  0.4427E+03
      5.907  0.0000E+00  0.4446E+03
      6.002  0.0000E+00  0.4479E+03
      6.096  0.3143E+01  0.4512E+03
      6.190  0.7942E+01  0.4562E+03
      6.284  0.3574E-03  0.4593E+03
      6.379  0.3151E+01  0.4624E+03
      6.473  0.1300E+01  0.4659E+03
      6.567  0.3197E+01  0.4719E+03
      6.662  0.3963E+01  0.4760E+03
      6.756  0.4715E+01  0.4796E+03
      6.850  0.9953E-09  0.4844E+03
      6.944  0.9118E-11  0.4871E+03
      7.039  0.4862E+01  0.4903E+03
      7.133  0.3561E+01  0.4940E+03
      7.227  0.7859E+01  0.5008E+03
      7.321  0.6278E+01  0.5039E+03
      7.416  0.6287E+01  0.5090E+03
      7.510  0.7858E+00  0.5115E+03
      7.604  0.0000E+00  0.5120E+03
      7.698  0.0000E+00  0.5120E+03
      7.793  0.0000E+00  0.5120E+03
      7.887  0.0000E+00  0.5120E+03
      7.981  0.0000E+00  0.5120E+03
      8.075  0.0000E+00  0.5120E+03
      8.170  0.0000E+00  0.5120E+03
      8.264  0.0000E+00  0.5120E+03
      8.358  0.0000E+00  0.5120E+03
      8.453  0.0000E+00  0.5120E+03
      8.547  0.0000E+00  0.5120E+03
      8.641  0.0000E+00  0.5120E+03
      8.735  0.0000E+00  0.5120E+03
      8.830  0.0000E+00  0.5120E+03
