 vasp.5.4.1 24Jun15 (build Nov 25 2015 16:01:35) complex                        
  
 executed on         CrayXC-Intel date 2016.07.12  03:58:47
 running on   96 total cores
 distrk:  each k-point on   24 cores,    4 groups
 distr:  one band on NCORES_PER_BAND=   3 cores,    8 groups


--------------------------------------------------------------------------------------------------------


 INCAR:
 POTCAR:    PAW_PBE C 08Apr2002                   
 POTCAR:    PAW_PBE N 08Apr2002                   
 POTCAR:    PAW_PBE H 15Jun2001                   
 POTCAR:    PAW_PBE Pb_d 06Sep2000                
 POTCAR:    PAW_PBE I 08Apr2002                   

 ----------------------------------------------------------------------------- 
|                                                                             |
|           W    W    AA    RRRRR   N    N  II  N    N   GGGG   !!!           |
|           W    W   A  A   R    R  NN   N  II  NN   N  G    G  !!!           |
|           W    W  A    A  R    R  N N  N  II  N N  N  G       !!!           |
|           W WW W  AAAAAA  RRRRR   N  N N  II  N  N N  G  GGG   !            |
|           WW  WW  A    A  R   R   N   NN  II  N   NN  G    G                |
|           W    W  A    A  R    R  N    N  II  N    N   GGGG   !!!           |
|                                                                             |
|      For optimal performance we recommend to set                            |
|        NCORE= 4 - approx SQRT( number of cores)                             |
|      NCORE specifies how many cores store one orbital (NPAR=cpu/NCORE).     |
|      This setting can  greatly improve the performance of VASP for DFT.     |
|      The default, NPAR=number of cores might be grossly inefficient         |
|      on modern multi-core architectures or massively parallel machines.     |
|      Do your own testing !!!!                                               |
|      Unfortunately you need to use the default for GW and RPA calculations. |
|      (for HF NCORE is supported but not extensively tested yet)             |
|                                                                             |
 ----------------------------------------------------------------------------- 


 ----------------------------------------------------------------------------- 
|                                                                             |
|           W    W    AA    RRRRR   N    N  II  N    N   GGGG   !!!           |
|           W    W   A  A   R    R  NN   N  II  NN   N  G    G  !!!           |
|           W    W  A    A  R    R  N N  N  II  N N  N  G       !!!           |
|           W WW W  AAAAAA  RRRRR   N  N N  II  N  N N  G  GGG   !            |
|           WW  WW  A    A  R   R   N   NN  II  N   NN  G    G                |
|           W    W  A    A  R    R  N    N  II  N    N   GGGG   !!!           |
|                                                                             |
|      You have enabled k-point parallelism (KPAR>1).                         |
|      This developmental code was originally  written by Paul Kent at ORNL,  |
|      and carefully double checked in Vienna.                                |
|      GW as well as linear response parallelism added by Martijn Marsman     |
|      and Georg Kresse.                                                      |
|      Carefully verify results versus KPAR=1.                                |
|      Report problems to Paul Kent and Vienna.                               |
|                                                                             |
 ----------------------------------------------------------------------------- 

 POTCAR:    PAW_PBE C 08Apr2002                   
   VRHFIN =C: s2p2                                                              
   LEXCH  = PE                                                                  
   EATOM  =   147.1560 eV,   10.8157 Ry                                         
                                                                                
   TITEL  = PAW_PBE C 08Apr2002                                                 
   LULTRA =        F    use ultrasoft PP ?                                      
   IUNSCR =        1    unscreen: 0-lin 1-nonlin 2-no                           
   RPACOR =    1.200    partial core radius                                     
   POMASS =   12.011; ZVAL   =    4.000    mass and valenz                      
   RCORE  =    1.500    outmost cutoff radius                                   
   RWIGS  =    1.630; RWIGS  =    0.863    wigner-seitz radius (au A)           
   ENMAX  =  400.000; ENMIN  =  300.000 eV                                      
   ICORE  =        2    local potential                                         
   LCOR   =        T    correct aug charges                                     
   LPAW   =        T    paw PP                                                  
   EAUG   =  644.873                                                            
   DEXC   =    0.000                                                            
   RMAX   =    1.529    core radius for proj-oper                               
   RAUG   =    1.300    factor for augmentation sphere                          
   RDEP   =    1.501    radius for radial grids                                 
   RDEPT  =    1.300    core radius for aug-charge                              
                                                                                
   Atomic configuration                                                         
    4 entries                                                                   
     n  l   j            E        occ.                                          
     1  0  0.50      -273.3789   2.0000                                         
     2  0  0.50       -13.7508   2.0000                                         
     2  1  0.50        -5.2854   2.0000                                         
     3  2  1.50        -5.4423   0.0000                                         
   Description                                                                  
     l       E           TYP  RCUT    TYP  RCUT                                 
     0    -13.7508458     23  1.200                                             
     0     -8.2022199     23  1.200                                             
     1     -5.2854383     23  1.500                                             
     1     34.0145650     23  1.500                                             
     2     -5.4423304      7  1.500                                             
  local pseudopotential read in
  partial core-charges read in
  partial kinetic energy density read in
  atomic valenz-charges read in
  non local Contribution for L=           0  read in
    real space projection operators read in
  non local Contribution for L=           0  read in
    real space projection operators read in
  non local Contribution for L=           1  read in
    real space projection operators read in
  non local Contribution for L=           1  read in
    real space projection operators read in
    PAW grid and wavefunctions read in
 
   number of l-projection  operators is LMAX  =           4
   number of lm-projection operators is LMMAX =           8
 
 POTCAR:    PAW_PBE N 08Apr2002                   
   VRHFIN =N: s2p3                                                              
   LEXCH  = PE                                                                  
   EATOM  =   264.5486 eV,   19.4438 Ry                                         
                                                                                
   TITEL  = PAW_PBE N 08Apr2002                                                 
   LULTRA =        F    use ultrasoft PP ?                                      
   IUNSCR =        1    unscreen: 0-lin 1-nonlin 2-no                           
   RPACOR =    1.200    partial core radius                                     
   POMASS =   14.001; ZVAL   =    5.000    mass and valenz                      
   RCORE  =    1.500    outmost cutoff radius                                   
   RWIGS  =    1.400; RWIGS  =    0.741    wigner-seitz radius (au A)           
   ENMAX  =  400.000; ENMIN  =  300.000 eV                                      
   ICORE  =        2    local potential                                         
   LCOR   =        T    correct aug charges                                     
   LPAW   =        T    paw PP                                                  
   EAUG   =  627.112                                                            
   DEXC   =    0.000                                                            
   RMAX   =    1.529    core radius for proj-oper                               
   RAUG   =    1.300    factor for augmentation sphere                          
   RDEP   =    1.514    radius for radial grids                                 
   RDEPT  =    1.338    core radius for aug-charge                              
                                                                                
   Atomic configuration                                                         
    4 entries                                                                   
     n  l   j            E        occ.                                          
     1  0  0.50      -384.7179   2.0000                                         
     2  0  0.50       -18.5828   2.0000                                         
     2  1  0.50        -7.0898   3.0000                                         
     3  2  1.50        -6.8029   0.0000                                         
   Description                                                                  
     l       E           TYP  RCUT    TYP  RCUT                                 
     0    -18.5828119     23  1.200                                             
     0    -13.5018863     23  1.200                                             
     1     -7.0897853     23  1.500                                             
     1      9.5240782     23  1.500                                             
     2     -6.8029130      7  1.500                                             
  local pseudopotential read in
  partial core-charges read in
  partial kinetic energy density read in
  atomic valenz-charges read in
  non local Contribution for L=           0  read in
    real space projection operators read in
  non local Contribution for L=           0  read in
    real space projection operators read in
  non local Contribution for L=           1  read in
    real space projection operators read in
  non local Contribution for L=           1  read in
    real space projection operators read in
    PAW grid and wavefunctions read in
 
   number of l-projection  operators is LMAX  =           4
   number of lm-projection operators is LMMAX =           8
 
 POTCAR:    PAW_PBE H 15Jun2001                   
   VRHFIN =H: ultrasoft test                                                    
   LEXCH  = PE                                                                  
   EATOM  =    12.4884 eV,    0.9179 Ry                                         
                                                                                
   TITEL  = PAW_PBE H 15Jun2001                                                 
   LULTRA =        F    use ultrasoft PP ?                                      
   IUNSCR =        0    unscreen: 0-lin 1-nonlin 2-no                           
   RPACOR =    0.000    partial core radius                                     
   POMASS =    1.000; ZVAL   =    1.000    mass and valenz                      
   RCORE  =    1.100    outmost cutoff radius                                   
   RWIGS  =    0.700; RWIGS  =    0.370    wigner-seitz radius (au A)           
   ENMAX  =  250.000; ENMIN  =  200.000 eV                                      
   RCLOC  =    0.701    cutoff for local pot                                    
   LCOR   =        T    correct aug charges                                     
   LPAW   =        T    paw PP                                                  
   EAUG   =  400.000                                                            
   RMAX   =    1.123    core radius for proj-oper                               
   RAUG   =    1.200    factor for augmentation sphere                          
   RDEP   =    1.112    radius for radial grids                                 
   RDEPT  =    0.926    core radius for aug-charge                              
                                                                                
   Atomic configuration                                                         
    2 entries                                                                   
     n  l   j            E        occ.                                          
     1  0  0.50        -6.4927   1.0000                                         
     2  1  0.50        -3.4015   0.0000                                         
   Description                                                                  
     l       E           TYP  RCUT    TYP  RCUT                                 
     0     -6.4927494     23  1.100                                             
     0      6.8029130     23  1.100                                             
     1     -4.0817478     23  1.100                                             
  local pseudopotential read in
  atomic valenz-charges read in
  non local Contribution for L=           0  read in
    real space projection operators read in
  non local Contribution for L=           0  read in
    real space projection operators read in
  non local Contribution for L=           1  read in
    real space projection operators read in
    PAW grid and wavefunctions read in
 
   number of l-projection  operators is LMAX  =           3
   number of lm-projection operators is LMMAX =           5
 
 POTCAR:    PAW_PBE Pb_d 06Sep2000                
   VRHFIN =Pb:                                                                  
   LEXCH  = PE                                                                  
   EATOM  =  1661.6185 eV,  122.1255 Ry                                         
                                                                                
   TITEL  = PAW_PBE Pb_d 06Sep2000                                              
   LULTRA =        F    use ultrasoft PP ?                                      
   IUNSCR =        1    unscreen: 0-lin 1-nonlin 2-no                           
   RPACOR =    2.200    partial core radius                                     
   POMASS =  207.200; ZVAL   =   14.000    mass and valenz                      
   RCORE  =    2.500    outmost cutoff radius                                   
   RWIGS  =    3.260; RWIGS  =    1.725    wigner-seitz radius (au A)           
   ENMAX  =  237.835; ENMIN  =  178.376 eV                                      
   ICORE  =        3    local potential                                         
   LCOR   =        T    correct aug charges                                     
   LPAW   =        T    paw PP                                                  
   EAUG   =  391.914                                                            
   DEXC   =    0.000                                                            
   RMAX   =    2.565    core radius for proj-oper                               
   RAUG   =    1.300    factor for augmentation sphere                          
   RDEP   =    2.643    radius for radial grids                                 
   RDEPT  =    2.092    core radius for aug-charge                              
                                                                                
   Atomic configuration                                                         
   16 entries                                                                   
     n  l   j            E        occ.                                          
     1  0  0.50    -88091.8466   2.0000                                         
     2  0  0.50    -15753.4197   2.0000                                         
     2  1  1.50    -13508.1797   6.0000                                         
     3  0  0.50     -3781.7194   2.0000                                         
     3  1  1.50     -3138.2529   6.0000                                         
     3  2  2.50     -2483.2977  10.0000                                         
     4  0  0.50      -856.2895   2.0000                                         
     4  1  1.50      -645.4942   6.0000                                         
     4  2  2.50      -401.8768  10.0000                                         
     4  3  3.50      -132.9059  14.0000                                         
     5  0  0.50      -144.0950   2.0000                                         
     5  1  1.50       -85.7879   6.0000                                         
     5  2  2.50       -21.1769  10.0000                                         
     6  0  0.50       -12.0372   2.0000                                         
     6  1  1.50        -3.4971   2.0000                                         
     5  3  2.50        -2.7212   0.0000                                         
   Description                                                                  
     l       E           TYP  RCUT    TYP  RCUT                                 
     2    -21.1768523     23  2.500                                             
     2      1.3605826     23  2.500                                             
     0    -12.0371562     23  2.500                                             
     0     13.6058260     23  2.500                                             
     1     -3.4971339     23  2.500                                             
     1     13.6058260     23  2.500                                             
     3     -1.3605826      7  2.500                                             
  local pseudopotential read in
  partial core-charges read in
  partial kinetic energy density read in
  atomic valenz-charges read in
  non local Contribution for L=           2  read in
    real space projection operators read in
  non local Contribution for L=           2  read in
    real space projection operators read in
  non local Contribution for L=           0  read in
    real space projection operators read in
  non local Contribution for L=           0  read in
    real space projection operators read in
  non local Contribution for L=           1  read in
    real space projection operators read in
  non local Contribution for L=           1  read in
    real space projection operators read in
    PAW grid and wavefunctions read in
 
   number of l-projection  operators is LMAX  =           6
   number of lm-projection operators is LMMAX =          18
 
 POTCAR:    PAW_PBE I 08Apr2002                   
   VRHFIN =I : s2p5                                                             
   LEXCH  = PE                                                                  
   EATOM  =   315.8678 eV,   23.2156 Ry                                         
                                                                                
   TITEL  = PAW_PBE I 08Apr2002                                                 
   LULTRA =        F    use ultrasoft PP ?                                      
   IUNSCR =        1    unscreen: 0-lin 1-nonlin 2-no                           
   RPACOR =    2.200    partial core radius                                     
   POMASS =  126.904; ZVAL   =    7.000    mass and valenz                      
   RCORE  =    2.300    outmost cutoff radius                                   
   RWIGS  =    2.810; RWIGS  =    1.487    wigner-seitz radius (au A)           
   ENMAX  =  175.647; ENMIN  =  131.735 eV                                      
   ICORE  =        3    local potential                                         
   LCOR   =        T    correct aug charges                                     
   LPAW   =        T    paw PP                                                  
   EAUG   =  370.139                                                            
   DEXC   =    0.000                                                            
   RMAX   =    2.359    core radius for proj-oper                               
   RAUG   =    1.300    factor for augmentation sphere                          
   RDEP   =    2.392    radius for radial grids                                 
   RDEPT  =    2.170    core radius for aug-charge                              
                                                                                
   Atomic configuration                                                         
   13 entries                                                                   
     n  l   j            E        occ.                                          
     1  0  0.50    -32976.3739   2.0000                                         
     2  0  0.50     -5094.5933   2.0000                                         
     2  1  1.50     -4572.0131   6.0000                                         
     3  0  0.50     -1028.2813   2.0000                                         
     3  1  1.50      -859.0250   6.0000                                         
     3  2  2.50      -605.7620  10.0000                                         
     4  0  0.50      -180.5540   2.0000                                         
     4  1  1.50      -127.5306   6.0000                                         
     4  2  2.50       -50.2720  10.0000                                         
     5  0  0.50       -17.4058   2.0000                                         
     5  1  0.50        -7.0851   5.0000                                         
     5  2  1.50        -7.0750   0.0000                                         
     4  3  2.50        -7.0750   0.0000                                         
   Description                                                                  
     l       E           TYP  RCUT    TYP  RCUT                                 
     0    -17.4058016     23  2.300                                             
     0    -18.7663842     23  2.300                                             
     1     -7.0850686     23  2.300                                             
     1     -4.2150896     23  2.300                                             
     2     -7.0750295     23  2.300                                             
     3     -1.3605826     23  2.300                                             
  local pseudopotential read in
  partial core-charges read in
  partial kinetic energy density read in
  atomic valenz-charges read in
  non local Contribution for L=           0  read in
    real space projection operators read in
  non local Contribution for L=           0  read in
    real space projection operators read in
  non local Contribution for L=           1  read in
    real space projection operators read in
  non local Contribution for L=           1  read in
    real space projection operators read in
  non local Contribution for L=           2  read in
    real space projection operators read in
    PAW grid and wavefunctions read in
 
   number of l-projection  operators is LMAX  =           5
   number of lm-projection operators is LMMAX =          13
 

 ----------------------------------------------------------------------------- 
|                                                                             |
|  ADVICE TO THIS USER RUNNING 'VASP/VAMP'   (HEAR YOUR MASTER'S VOICE ...):  |
|                                                                             |
|      You have a (more or less) 'large supercell' and for larger cells       |
|      it might be more efficient to use real space projection opertators     |
|      So try LREAL= Auto  in the INCAR   file.                               |
|      Mind: At the moment your POTCAR file does not contain real space       |
|       projectors, and has to be modified,  BUT if you                       |
|      want to do an extremely  accurate calculation you might also keep the  |
|      reciprocal projection scheme          (i.e. LREAL=.FALSE.)             |
|                                                                             |
 ----------------------------------------------------------------------------- 


 ----------------------------------------------------------------------------- 
|                                                                             |
|  ADVICE TO THIS USER RUNNING 'VASP/VAMP'   (HEAR YOUR MASTER'S VOICE ...):  |
|                                                                             |
|      You enforced a specific xc-type in the INCAR file,                     |
|      a different type was found on the POTCAR file                          |
|          I HOPE YOU KNOW, WHAT YOU ARE  DOING                               |
|                                                                             |
 ----------------------------------------------------------------------------- 

  PAW_PBE C 08Apr2002                   :
 energy of atom  1       EATOM= -147.1560
 kinetic energy error for atom=    0.0032 (will be added to EATOM!!)
  PAW_PBE N 08Apr2002                   :
 energy of atom  2       EATOM= -264.5486
 kinetic energy error for atom=    0.0061 (will be added to EATOM!!)
  PAW_PBE H 15Jun2001                   :
 energy of atom  3       EATOM=  -12.4884
 kinetic energy error for atom=    0.0002 (will be added to EATOM!!)
  PAW_PBE Pb_d 06Sep2000                :
 energy of atom  4       EATOM=-1661.6185
 kinetic energy error for atom=    0.0012 (will be added to EATOM!!)
  PAW_PBE I 08Apr2002                   :
 energy of atom  5       EATOM= -315.8678
 kinetic energy error for atom=    0.0003 (will be added to EATOM!!)
 
 
 POSCAR: C N H Pb I                              
  positions in direct lattice
  No initial velocities read in
 exchange correlation table for  LEXCH =       14
   RHO(1)=    0.500       N(1)  =     2000
   RHO(2)=  100.500       N(2)  =     4000
 


--------------------------------------------------------------------------------------------------------


 ion  position               nearest neighbor table
   1  0.198  0.250  0.229-  25 1.10  33 1.10  17 1.11   9 1.49
   2  0.696  0.250  0.229-  26 1.10  34 1.10  18 1.11  10 1.49
   3  0.196  0.750  0.229-  27 1.10  35 1.10  19 1.11  11 1.49
   4  0.698  0.750  0.229-  28 1.10  36 1.10  20 1.11  12 1.49
   5  0.196  0.250  0.729-  29 1.10  37 1.10  21 1.11  13 1.49
   6  0.698  0.250  0.729-  30 1.10  38 1.10  22 1.11  14 1.49
   7  0.198  0.750  0.729-  31 1.10  39 1.10  23 1.11  15 1.49
   8  0.696  0.750  0.729-  32 1.10  40 1.10  24 1.11  16 1.49
   9  0.311  0.250  0.260-  41 1.05  49 1.05  57 1.06   1 1.49
  10  0.798  0.250  0.288-  58 1.05  42 1.05  50 1.05   2 1.49
  11  0.298  0.750  0.288-  59 1.05  43 1.05  51 1.05   3 1.49
  12  0.811  0.750  0.260-  44 1.05  52 1.05  60 1.06   4 1.49
  13  0.298  0.250  0.788-  61 1.05  45 1.05  53 1.05   5 1.49
  14  0.811  0.250  0.760-  46 1.05  54 1.05  62 1.06   6 1.49
  15  0.311  0.750  0.760-  47 1.05  55 1.05  63 1.06   7 1.49
  16  0.798  0.750  0.788-  64 1.05  48 1.05  56 1.05   8 1.49
  17  0.195  0.250  0.142-   1 1.11
  18  0.715  0.250  0.144-   2 1.11
  19  0.215  0.750  0.144-   3 1.11
  20  0.695  0.750  0.142-   4 1.11
  21  0.215  0.250  0.644-   5 1.11
  22  0.695  0.250  0.642-   6 1.11
  23  0.195  0.750  0.642-   7 1.11
  24  0.715  0.750  0.644-   8 1.11
  25  0.158  0.322  0.260-   1 1.10
  26  0.651  0.322  0.251-   2 1.10
  27  0.151  0.822  0.251-   3 1.10
  28  0.658  0.822  0.260-   4 1.10
  29  0.151  0.322  0.751-   5 1.10
  30  0.658  0.322  0.760-   6 1.10
  31  0.158  0.822  0.760-   7 1.10
  32  0.651  0.822  0.751-   8 1.10
  33  0.158  0.177  0.260-   1 1.10
  34  0.651  0.177  0.251-   2 1.10
  35  0.151  0.677  0.251-   3 1.10
  36  0.658  0.677  0.260-   4 1.10
  37  0.151  0.177  0.751-   5 1.10
  38  0.658  0.177  0.760-   6 1.10
  39  0.158  0.677  0.760-   7 1.10
  40  0.651  0.677  0.751-   8 1.10
  41  0.352  0.318  0.232-   9 1.05
  42  0.844  0.318  0.270-  10 1.05
  43  0.344  0.818  0.270-  11 1.05
  44  0.852  0.818  0.232-  12 1.05
  45  0.344  0.318  0.770-  13 1.05
  46  0.852  0.318  0.732-  14 1.05
  47  0.352  0.818  0.732-  15 1.05
  48  0.844  0.818  0.770-  16 1.05
  49  0.352  0.182  0.232-   9 1.05
  50  0.844  0.182  0.270-  10 1.05
  51  0.344  0.682  0.270-  11 1.05
  52  0.852  0.682  0.232-  12 1.05
  53  0.344  0.182  0.770-  13 1.05
  54  0.852  0.182  0.732-  14 1.05
  55  0.352  0.682  0.732-  15 1.05
  56  0.844  0.682  0.770-  16 1.05
  57  0.321  0.250  0.342-   9 1.06
  58  0.785  0.250  0.369-  10 1.05
  59  0.285  0.750  0.369-  11 1.05
  60  0.821  0.750  0.342-  12 1.06
  61  0.285  0.250  0.869-  13 1.05
  62  0.821  0.250  0.842-  14 1.06
  63  0.321  0.750  0.842-  15 1.06
  64  0.785  0.750  0.869-  16 1.05
  65  0.472  0.498  0.489-  90 3.10  87 3.15  85 3.17  77 3.17  73 3.22  89 3.28
  66  0.972  0.502  0.489-  89 3.10  86 3.15  88 3.17  78 3.17  74 3.22  90 3.28
  67  0.472  0.002  0.489-  92 3.10  87 3.15  85 3.17  79 3.17  75 3.22  91 3.28
  68  0.972  0.998  0.489-  91 3.10  86 3.15  88 3.17  80 3.17  76 3.22  92 3.28
  69  0.472  0.502  0.989-  94 3.10  81 3.15  83 3.17  73 3.17  77 3.22  93 3.28
  70  0.972  0.498  0.989-  93 3.10  84 3.15  82 3.17  74 3.17  78 3.22  94 3.28
  71  0.472  0.998  0.989-  96 3.10  81 3.15  83 3.17  75 3.17  79 3.22  95 3.28
  72  0.972  0.002  0.989-  95 3.10  84 3.15  82 3.17  76 3.17  80 3.22  96 3.28
  73  0.455  0.504  0.238-  69 3.17  65 3.22
  74  0.955  0.496  0.238-  70 3.17  66 3.22
  75  0.455  0.996  0.238-  71 3.17  67 3.22
  76  0.955  0.004  0.238-  72 3.17  68 3.22
  77  0.455  0.496  0.738-  65 3.17  69 3.22
  78  0.955  0.504  0.738-  66 3.17  70 3.22
  79  0.455  0.004  0.738-  67 3.17  71 3.22
  80  0.955  0.996  0.738-  68 3.17  72 3.22
  81  0.477  0.250  0.011-  71 3.15  69 3.15
  82  0.922  0.250  0.013-  72 3.17  70 3.17
  83  0.422  0.750  0.013-  69 3.17  71 3.17
  84  0.977  0.750  0.011-  70 3.15  72 3.15
  85  0.422  0.250  0.513-  67 3.17  65 3.17
  86  0.977  0.250  0.511-  68 3.15  66 3.15
  87  0.477  0.750  0.511-  65 3.15  67 3.15
  88  0.922  0.750  0.513-  66 3.17  68 3.17
  89  0.216  0.532  0.461-  66 3.10  65 3.28
  90  0.716  0.468  0.461-  65 3.10  66 3.28
  91  0.216  0.968  0.461-  68 3.10  67 3.28
  92  0.716  0.032  0.461-  67 3.10  68 3.28
  93  0.216  0.468  0.961-  70 3.10  69 3.28
  94  0.716  0.532  0.961-  69 3.10  70 3.28
  95  0.216  0.032  0.961-  72 3.10  71 3.28
  96  0.716  0.968  0.961-  71 3.10  72 3.28
 
  LATTYP: Found a triclinic cell.
 ALAT       =    17.8238589327
 B/A-ratio  =     0.6989248630
 C/A-ratio  =     1.0156975818
 COS(alpha) =     0.0001355172
 COS(beta)  =     0.5146378593
 COS(gamma) =     0.6988877578
  
  Lattice vectors:
  
 A1 = (  -0.1406063366, -12.4576271275, -12.7466742118)
 A2 = (  -0.0011956322, -12.4575380825,   0.0007464135)
 A3 = ( -12.7162481321,  -0.0020049566, -12.8856194186)


Analysis of symmetry for initial positions (statically):
=====================================================================
 Subroutine PRICEL returns following result:
 
  LATTYP: Found a triclinic cell.
 ALAT       =     8.8524544993
 B/A-ratio  =     1.4072411401
 C/A-ratio  =     1.0225215175
 COS(alpha) =     0.0001355172
 COS(beta)  =     0.5046167836
 COS(gamma) =     0.7037964938
  
  Lattice vectors:
  
 A1 = (   6.2890165300,   6.2297269971,   0.0687261899)
 A2 = (   0.0011956322,  12.4575380825,  -0.0007464135)
 A3 = (   6.3581240661,   0.0010024783,   6.4428097093)
 
   4 primitive cells build up your supercell.
 

 Routine SETGRP: Setting up the symmetry group for a 
 triclinic supercell.


 Subroutine GETGRP returns: Found  1 space group operations
 (whereof  1 operations were pure point group operations)
 out of a pool of  2 trial point group operations.


The static configuration has the point symmetry C_1 .


Analysis of symmetry for dynamics (positions and initial velocities):
=====================================================================
 Subroutine PRICEL returns following result:
 
  LATTYP: Found a triclinic cell.
 ALAT       =     8.8524544993
 B/A-ratio  =     1.4072411401
 C/A-ratio  =     1.0225215175
 COS(alpha) =     0.0001355172
 COS(beta)  =     0.5046167836
 COS(gamma) =     0.7037964938
  
  Lattice vectors:
  
 A1 = (   6.2890165300,   6.2297269971,   0.0687261899)
 A2 = (   0.0011956322,  12.4575380825,  -0.0007464135)
 A3 = (   6.3581240661,   0.0010024783,   6.4428097093)
 
   4 primitive cells build up your supercell.
 

 Routine SETGRP: Setting up the symmetry group for a 
 triclinic supercell.


 Subroutine GETGRP returns: Found  1 space group operations
 (whereof  1 operations were pure point group operations)
 out of a pool of  2 trial point group operations.


The dynamic configuration has the point symmetry C_1 .


 Subroutine INISYM returns: Found  1 space group operations
 (whereof  1 operations are pure point group operations),
 and found     4 'primitive' translations

 
 
 KPOINTS: Automatic 3x3x3                         

Automatic generation of k-mesh.
Space group operators:
 irot       det(A)        alpha          n_x          n_y          n_z        tau_x        tau_y        tau_z
    1     1.000000     0.000000     1.000000     0.000000     0.000000     0.000000     0.000000     0.000000
 
 Subroutine IBZKPT returns following result:
 ===========================================
 
 Found     14 irreducible k-points:
 
 Following reciprocal coordinates:
            Coordinates               Weight
  0.000000  0.000000  0.000000      1.000000
  0.333333 -0.000000 -0.000000      2.000000
  0.000000  0.333333 -0.000000      2.000000
  0.333333  0.333333  0.000000      2.000000
 -0.333333  0.333333  0.000000      2.000000
  0.000000  0.000000  0.333333      2.000000
  0.333333  0.000000  0.333333      2.000000
 -0.333333  0.000000  0.333333      2.000000
  0.000000  0.333333  0.333333      2.000000
  0.333333  0.333333  0.333333      2.000000
 -0.333333  0.333333  0.333333      2.000000
  0.000000 -0.333333  0.333333      2.000000
  0.333333 -0.333333  0.333333      2.000000
 -0.333333 -0.333333  0.333333      2.000000
 
 Following cartesian coordinates:
            Coordinates               Weight
  0.000000  0.000000  0.000000      1.000000
  0.026507 -0.000003 -0.000290      2.000000
 -0.000004  0.026758 -0.000000      2.000000
  0.026503  0.026755 -0.000290      2.000000
 -0.026511  0.026760  0.000290      2.000000
 -0.000287  0.000002  0.026152      2.000000
  0.026220 -0.000001  0.025862      2.000000
 -0.026794  0.000004  0.026442      2.000000
 -0.000291  0.026759  0.026152      2.000000
  0.026215  0.026757  0.025862      2.000000
 -0.026798  0.026762  0.026442      2.000000
 -0.000283 -0.026756  0.026152      2.000000
  0.026224 -0.026759  0.025862      2.000000
 -0.026790 -0.026753  0.026442      2.000000
 


--------------------------------------------------------------------------------------------------------




 Dimension of arrays:
   k-points           NKPTS =     14   k-points in BZ     NKDIM =     14   number of bands    NBANDS=    256
   number of dos      NEDOS =    301   number of ions     NIONS =     96
   non local maximal  LDIM  =      6   non local SUM 2l+1 LMDIM =     18
   total plane-waves  NPLWV = ******
   max r-space proj   IRMAX =      1   max aug-charges    IRDMAX= 314103
   dimension x,y,z NGX =   112 NGY =  108 NGZ =  112
   dimension x,y,z NGXF=   224 NGYF=  216 NGZF=  224
   support grid    NGXF=   448 NGYF=  432 NGZF=  448
   ions per type =               8   8  48   8  24
 NGX,Y,Z   is equivalent  to a cutoff of  14.80, 14.41, 14.61 a.u.
 NGXF,Y,Z  is equivalent  to a cutoff of  29.61, 28.83, 29.21 a.u.


 I would recommend the setting:
   dimension x,y,z NGX =   109 NGY =  107 NGZ =  110
 SYSTEM =  MAPbI3-Cubic                            
 POSCAR =  C N H Pb I                              

 Startparameter for this run:
   NWRITE =      2    write-flag & timer
   PREC   = accura    normal or accurate (medium, high low for compatibility)
   ISTART =      0    job   : 0-new  1-cont  2-samecut
   ICHARG =      2    charge: 1-file 2-atom 10-const
   ISPIN  =      1    spin polarized calculation?
   LNONCOLLINEAR =      F non collinear calculations
   LSORBIT =      F    spin-orbit coupling
   INIWAV =      1    electr: 0-lowe 1-rand  2-diag
   LASPH  =      F    aspherical Exc in radial PAW
   METAGGA=      F    non-selfconsistent MetaGGA calc.

 Electronic Relaxation 1
   ENCUT  =  700.0 eV  51.45 Ry    7.17 a.u.  27.13 26.87 27.50*2*pi/ulx,y,z
   ENINI  =  700.0     initial cutoff
   ENAUG  =  644.9 eV  augmentation charge cutoff
   NELM   =     60;   NELMIN=  2; NELMDL= -5     # of ELM steps 
   EDIFF  = 0.1E-09   stopping-criterion for ELM
   LREAL  =      F    real-space projection
   NLSPLINE    = F    spline interpolate recip. space projectors
   LCOMPAT=      F    compatible to vasp.4.4
   GGA_COMPAT  = T    GGA compatible to vasp.4.4-vasp.4.6
   LMAXPAW     = -100 max onsite density
   LMAXMIX     =    2 max onsite mixed and CHGCAR
   VOSKOWN=      0    Vosko Wilk Nusair interpolation
   ROPT   =    0.00000   0.00000   0.00000   0.00000
   ROPT   =    0.00000
 Ionic relaxation
   EDIFFG = 0.1E-08   stopping-criterion for IOM
   NSW    =      0    number of steps for IOM
   NBLOCK =      1;   KBLOCK =      1    inner block; outer block 
   IBRION =     -1    ionic relax: 0-MD 1-quasi-New 2-CG
   NFREE  =      0    steps in history (QN), initial steepest desc. (CG)
   ISIF   =      2    stress and relaxation
   IWAVPR =     10    prediction:  0-non 1-charg 2-wave 3-comb
   ISYM   =      2    0-nonsym 1-usesym 2-fastsym
   LCORR  =      T    Harris-Foulkes like correction to forces

   POTIM  = 0.5000    time-step for ionic-motion
   TEIN   =    0.0    initial temperature
   TEBEG  =    0.0;   TEEND  =   0.0 temperature during run
   SMASS  =  -3.00    Nose mass-parameter (am)
   estimated Nose-frequenzy (Omega)   =  0.10E-29 period in steps =****** mass=  -0.362E-26a.u.
   SCALEE = 1.0000    scale energy and forces
   NPACO  =    256;   APACO  = 16.0  distance and # of slots for P.C.
   PSTRESS=    0.0 pullay stress

  Mass of Ions in am
   POMASS =  12.01 14.00  1.00207.20126.90
  Ionic Valenz
   ZVAL   =   4.00  5.00  1.00 14.00  7.00
  Atomic Wigner-Seitz radii
   RWIGS  =  -1.00 -1.00 -1.00 -1.00 -1.00
  virtual crystal weights 
   VCA    =   1.00  1.00  1.00  1.00  1.00
   NELECT =     400.0000    total number of electrons
   NUPDOWN=      -1.0000    fix difference up-down

 DOS related values:
   EMIN   =  10.00;   EMAX   =-10.00  energy-range for DOS
   EFERMI =   0.00
   ISMEAR =     0;   SIGMA  =   0.00  broadening in eV -4-tet -1-fermi 0-gaus

 Electronic relaxation 2 (details)
   IALGO  =     38    algorithm
   LDIAG  =      T    sub-space diagonalisation (order eigenvalues)
   LSUBROT=      F    optimize rotation matrix (better conditioning)
   TURBO    =      0    0=normal 1=particle mesh
   IRESTART =      0    0=no restart 2=restart with 2 vectors
   NREBOOT  =      0    no. of reboots
   NMIN     =      0    reboot dimension
   EREF     =   0.00    reference energy to select bands
   IMIX   =      4    mixing-type and parameters
     AMIX     =   0.40;   BMIX     =  1.00
     AMIX_MAG =   1.60;   BMIX_MAG =  1.00
     AMIN     =   0.10
     WC   =   100.;   INIMIX=   1;  MIXPRE=   1;  MAXMIX= -45

 Intra band minimization:
   WEIMIN = 0.0000     energy-eigenvalue tresh-hold
   EBREAK =  0.98E-13  absolut break condition
   DEPER  =   0.30     relativ break condition  

   TIME   =   0.40     timestep for ELM

  volume/ion in A,a.u.               =      20.80       140.38
  Fermi-wavevector in a.u.,A,eV,Ry     =   0.957863  1.810099 12.483376  0.917502
  Thomas-Fermi vector in A             =   2.086919
 
 Write flags
   LWAVE  =      F    write WAVECAR
   LCHARG =      F    write CHGCAR
   LVTOT  =      F    write LOCPOT, total local potential
   LVHAR  =      F    write LOCPOT, Hartree potential only
   LELF   =      F    write electronic localiz. function (ELF)
   LORBIT =      0    0 simple, 1 ext, 2 COOP (PROOUT)


 Dipole corrections
   LMONO  =      F    monopole corrections only (constant potential shift)
   LDIPOL =      F    correct potential (dipole corrections)
   IDIPOL =      0    1-x, 2-y, 3-z, 4-all directions 
   EPSILON=  1.0000000 bulk dielectric constant

 Core level calculations are selected ICORELEVEL =  1
 Exchange correlation treatment:
   GGA     =    PS    GGA type
   LEXCH   =    14    internal setting for exchange type
   VOSKOWN=      0    Vosko Wilk Nusair interpolation
   LHFCALC =     F    Hartree Fock is set to
   LHFONE  =     F    Hartree Fock one center treatment
   AEXX    =    0.0000 exact exchange contribution

 Linear response parameters
   LEPSILON=     F    determine dielectric tensor
   LRPA    =     F    only Hartree local field effects (RPA)
   LNABLA  =     F    use nabla operator in PAW spheres
   LVEL    =     F    velocity operator in full k-point grid
   LINTERFAST=   F  fast interpolation
   KINTER  =     0    interpolate to denser k-point grid
   CSHIFT  =0.1000    complex shift for real part using Kramers Kronig
   OMEGAMAX=  -1.0    maximum frequency
   DEG_THRESHOLD= 0.2000000E-02 threshold for treating states as degnerate
   RTIME   =    0.100 relaxation time in fs

 Orbital magnetization related:
   ORBITALMAG=     F  switch on orbital magnetization
   LCHIMAG   =     F  perturbation theory with respect to B field
   DQ        =  0.001000  dq finite difference perturbation B field



--------------------------------------------------------------------------------------------------------


 Static calculation
 charge density and potential will be updated during run
 non-spin polarized calculation
 Variant of blocked Davidson
 Davidson routine will perform the subspace rotation
 perform sub-space diagonalisation
    after iterative eigenvector-optimisation
 modified Broyden-mixing scheme, WC =      100.0
 initial mixing is a Kerker type mixing with AMIX =  0.4000 and BMIX =      1.0000
 Hartree-type preconditioning will be used
 using additional bands           56
 reciprocal scheme for non local part
 use partial core corrections
 calculate Harris-corrections to forces 
   (improved forces if not selfconsistent)
 use gradient corrections 
 use of overlap-Matrix (Vanderbilt PP)
 Gauss-broadening in eV      SIGMA  =   0.00


--------------------------------------------------------------------------------------------------------


  energy-cutoff  :      700.00
  volume of cell :     1996.98
      direct lattice vectors                 reciprocal lattice vectors
    12.576837428  0.001915912  0.138198793     0.079520802 -0.000007684 -0.000869670
     0.001195632 12.457538083 -0.000746413    -0.000012224  0.080272684 -0.000000427
     0.139410704  0.000089045 12.747420625    -0.000862111  0.000004784  0.078456671

  length of vectors
    12.577596840 12.457538162 12.748182927     0.079525558  0.080272685  0.078461408


 
 k-points in units of 2pi/SCALE and weight: Automatic 3x3x3                         
   0.00000000  0.00000000  0.00000000       0.037
   0.02650693 -0.00000256 -0.00028989       0.074
  -0.00000407  0.02675756 -0.00000014       0.074
   0.02650286  0.02675500 -0.00029003       0.074
  -0.02651101  0.02676012  0.00028975       0.074
  -0.00028737  0.00000159  0.02615222       0.074
   0.02621956 -0.00000097  0.02586233       0.074
  -0.02679430  0.00000416  0.02644211       0.074
  -0.00029144  0.02675916  0.02615208       0.074
   0.02621549  0.02675659  0.02586219       0.074
  -0.02679838  0.02676172  0.02644197       0.074
  -0.00028330 -0.02675597  0.02615237       0.074
   0.02622364 -0.02675853  0.02586248       0.074
  -0.02679023 -0.02675341  0.02644226       0.074
 
 k-points in reciprocal lattice and weights: Automatic 3x3x3                         
   0.00000000  0.00000000  0.00000000       0.037
   0.33333333 -0.00000000 -0.00000000       0.074
   0.00000000  0.33333333 -0.00000000       0.074
   0.33333333  0.33333333  0.00000000       0.074
  -0.33333333  0.33333333  0.00000000       0.074
   0.00000000  0.00000000  0.33333333       0.074
   0.33333333  0.00000000  0.33333333       0.074
  -0.33333333  0.00000000  0.33333333       0.074
   0.00000000  0.33333333  0.33333333       0.074
   0.33333333  0.33333333  0.33333333       0.074
  -0.33333333  0.33333333  0.33333333       0.074
   0.00000000 -0.33333333  0.33333333       0.074
   0.33333333 -0.33333333  0.33333333       0.074
  -0.33333333 -0.33333333  0.33333333       0.074
 
 position of ions in fractional coordinates (direct lattice) 
   0.19771997  0.24985111  0.22858729
   0.69626830  0.24996544  0.22924342
   0.19626830  0.74996544  0.22924342
   0.69771997  0.74985111  0.22858729
   0.19626830  0.24996544  0.72924342
   0.69771997  0.24985111  0.72858729
   0.19771997  0.74985111  0.72858729
   0.69626830  0.74996544  0.72924342
   0.31124839  0.24996692  0.26009769
   0.79782605  0.25004037  0.28767090
   0.29782605  0.75004037  0.28767090
   0.81124839  0.74996692  0.26009769
   0.29782605  0.25004037  0.78767090
   0.81124839  0.24996692  0.76009769
   0.31124839  0.74996692  0.76009769
   0.79782605  0.75004037  0.78767090
   0.19466400  0.24976421  0.14176889
   0.71548633  0.24987798  0.14400837
   0.21548633  0.74987798  0.14400837
   0.69466400  0.74976421  0.14176889
   0.21548633  0.24987798  0.64400837
   0.69466400  0.24976421  0.64176889
   0.19466400  0.74976421  0.64176889
   0.71548633  0.74987798  0.64400837
   0.15813486  0.32221276  0.26025196
   0.65054076  0.32249161  0.25077868
   0.15054076  0.82249161  0.25077868
   0.65813486  0.82221276  0.26025196
   0.15054076  0.32249161  0.75077868
   0.65813486  0.32221276  0.76025196
   0.15813486  0.82221276  0.76025196
   0.65054076  0.82249161  0.75077868
   0.15828808  0.17748188  0.26037588
   0.65059759  0.17747027  0.25092553
   0.15059759  0.67747027  0.25092553
   0.65828808  0.67748188  0.26037588
   0.15059759  0.17747027  0.75092553
   0.65828808  0.17748188  0.76037588
   0.15828808  0.67748188  0.76037588
   0.65059759  0.67747027  0.75092553
   0.35218909  0.31776597  0.23193604
   0.84408007  0.31798259  0.26957694
   0.34408007  0.81798259  0.26957694
   0.85218909  0.81776597  0.23193604
   0.34408007  0.31798259  0.76957694
   0.85218909  0.31776597  0.73193604
   0.35218909  0.81776597  0.73193604
   0.84408007  0.81798259  0.76957694
   0.35231723  0.18218001  0.23202005
   0.84409337  0.18202976  0.26976175
   0.34409337  0.68202976  0.26976175
   0.85231723  0.68218001  0.23202005
   0.34409337  0.18202976  0.76976175
   0.85231723  0.18218001  0.73202005
   0.35231723  0.68218001  0.73202005
   0.84409337  0.68202976  0.76976175
   0.32133032  0.25001792  0.34224210
   0.78500982  0.25016913  0.36897638
   0.28500982  0.75016913  0.36897638
   0.82133032  0.75001792  0.34224210
   0.28500982  0.25016913  0.86897638
   0.82133032  0.25001792  0.84224210
   0.32133032  0.75001792  0.84224210
   0.78500982  0.75016913  0.86897638
   0.47243829  0.49819638  0.48880668
   0.97244526  0.50178321  0.48881622
   0.47244526  0.00178321  0.48881622
   0.97243829  0.99819638  0.48880668
   0.47244526  0.50178321  0.98881622
   0.97243829  0.49819638  0.98880668
   0.47243829  0.99819638  0.98880668
   0.97244526  0.00178321  0.98881622
   0.45470180  0.50370353  0.23757486
   0.95478555  0.49627857  0.23757062
   0.45478555  0.99627857  0.23757062
   0.95470180  0.00370353  0.23757486
   0.45478555  0.49627857  0.73757062
   0.95470180  0.50370353  0.73757486
   0.45470180  0.00370353  0.73757486
   0.95478555  0.99627857  0.73757062
   0.47716186  0.24997240  0.01060245
   0.92210902  0.24998562  0.01306199
   0.42210902  0.74998562  0.01306199
   0.97716186  0.74997240  0.01060245
   0.42210902  0.24998562  0.51306199
   0.97716186  0.24997240  0.51060245
   0.47716186  0.74997240  0.51060245
   0.92210902  0.74998562  0.51306199
   0.21616462  0.53157316  0.46127267
   0.71617826  0.46842171  0.46120674
   0.21617826  0.96842171  0.46120674
   0.71616462  0.03157316  0.46127267
   0.21617826  0.46842171  0.96120674
   0.71616462  0.53157316  0.96127267
   0.21616462  0.03157316  0.96127267
   0.71617826  0.96842171  0.96120674
 
 position of ions in cartesian coordinates  (Angst):
   2.51885811  3.11292883  2.94103644
   8.78911105  3.11530845  3.01829920
   2.50129016  9.34311953  2.94882660
   8.80787464  9.34265583  3.00976263
   2.57039769  3.11439501  9.32291012
   8.87698218  3.11393131  9.38384615
   2.58916128  9.34174240  9.31437355
   8.85941422  9.34412201  9.39163631
   3.95107964  3.11459185  3.35840224
  10.07453189  3.11644156  3.77713395
   3.78671099  9.34425264  3.70766135
  10.24009617  9.34431885  3.42712843
   3.85581853  3.11552812 10.08174487
  10.30920371  3.11559433  9.80121195
   4.02138281  9.34340542  9.73173935
  10.14483506  9.34525512 10.15047106
   2.46832021  3.11183279  1.83390353
   9.01893038  3.11424806  1.93442805
   2.73110948  9.34205915  1.86495544
   8.75733674  9.34155979  1.90262972
   2.80021701  3.11333463  8.23903896
   8.82644428  3.11283527  8.27671323
   2.53862338  9.34064636  8.20724063
   9.08923354  9.34306163  8.30776515
   2.02550352  4.01430387  3.33915475
   8.21709217  4.01872027  3.28644453
   1.92927127 10.24653135  3.21697193
   8.31452005 10.24403087  3.40788094
   1.99837881  4.01780683  9.59105545
   8.38362759  4.01530635  9.78196446
   2.09580669 10.24311743  9.71249186
   8.28739534 10.24753383  9.65978164
   2.02727478  2.21131372  3.34086363
   8.21765404  2.21211145  3.28843263
   1.92983314  8.43992253  3.21896003
   8.31629131  8.44104072  3.40958982
   1.99894068  2.21119801  9.59304355
   8.38539884  2.21231620  9.78367334
   2.09757794  8.44012729  9.71420074
   8.28795721  8.44092501  9.66176974
   4.46213921  3.95927712  3.00502119
  10.65381987  3.96292145  3.55282417
   4.36599897 10.19073253  3.48335156
  10.75115574 10.18900412  3.07374738
   4.43510650  3.96200802  9.85743508
  10.82026328  3.96027960  9.44783089
   4.53244238 10.18809069  9.37835829
  10.72412303 10.19173501  9.92616127
   4.46360046  2.27021011  3.00621096
  10.65385037  2.26928392  3.55528335
   4.36602947  8.49709501  3.48581075
  10.75261699  8.49993711  3.07493715
   4.43513701  2.26837049  9.85989427
  10.82172453  2.27121259  9.44902067
   4.53390363  8.49902368  9.37954807
  10.72415354  8.49809749  9.92862046
   4.08933037  3.11525381  4.40692491
   9.92467929  3.11802831  4.81179785
   3.63685840  9.34583939  4.74232525
  10.37834690  9.34498081  4.47565110
   3.70596593  3.11711488 11.11640877
  10.44745444  3.11625629 10.84973462
   4.15963354  9.34406738 10.78026202
   9.99498246  9.34684187 11.18513496
   6.01052015  6.20724902  6.29594286
  12.29903209  6.25289013  6.36516215
   6.01001556  0.02316313  6.29643596
  12.29953668 12.43697601  6.36466905
   6.08031873  6.25197669 12.66977307
  12.36864422  6.20825150 12.73875257
   6.08082332 12.43606258 12.66927996
  12.36813962  0.02416561 12.73924567
   5.75243337  6.27579817  3.09092999
  12.04189585  6.18425967  3.15999241
   5.75407495 12.41207076  3.09051980
  12.04025427  0.04798709  3.16040259
   5.82318249  6.18334624  9.46460332
  12.11055744  6.27680065  9.53373970
   5.82154091  0.04707365  9.46501351
  12.11219902 12.41307323  9.53332951
   6.00296414  3.11495582  0.20091048
  11.59933506  3.11597326  0.29375440
   5.31151417  9.34378434  0.22428180
  12.29198067  9.34468281  0.26963667
   5.38062170  3.11505982  6.59836532
  12.36108821  3.11595830  6.64372019
   6.07326731  9.34376938  6.57424759
  11.66963823  9.34478682  6.66709151
   2.78360916  6.62254814  5.90951364
   9.07211476  5.83679450  5.97782159
   2.78429386 12.06460559  5.90834899
   9.07143005  0.39473705  5.97898624
   2.85340140  5.83588107 12.28243251
   9.14173322  6.62355061 12.35232335
   2.85271669  0.39382362 12.28359716
   9.14241793 12.06560807 12.35115870
 


--------------------------------------------------------------------------------------------------------


 k-point  1 :   0.0000 0.0000 0.0000  plane waves:   84007
 k-point  2 :   0.3333-0.0000-0.0000  plane waves:   84003
 k-point  3 :   0.0000 0.3333-0.0000  plane waves:   83995
 k-point  4 :   0.3333 0.3333 0.0000  plane waves:   84018
 k-point  5 :  -0.3333 0.3333 0.0000  plane waves:   84019
 k-point  6 :   0.0000 0.0000 0.3333  plane waves:   83960
 k-point  7 :   0.3333 0.0000 0.3333  plane waves:   83937
 k-point  8 :  -0.3333 0.0000 0.3333  plane waves:   83982
 k-point  9 :   0.0000 0.3333 0.3333  plane waves:   83984
 k-point 10 :   0.3333 0.3333 0.3333  plane waves:   84012
 k-point 11 :  -0.3333 0.3333 0.3333  plane waves:   83970
 k-point 12 :   0.0000-0.3333 0.3333  plane waves:   83977
 k-point 13 :   0.3333-0.3333 0.3333  plane waves:   84013
 k-point 14 :  -0.3333-0.3333 0.3333  plane waves:   83973

 maximum and minimum number of plane-waves per node :     28039    27934

 maximum number of plane-waves:     84019
 maximum index in each direction: 
   IXMAX=   27   IYMAX=   27   IZMAX=   27
   IXMIN=  -27   IYMIN=  -27   IZMIN=  -27

 NGX is ok and might be reduce to 110
 WARNING: aliasing errors must be expected set NGY to 110 to avoid them
 NGZ is ok and might be reduce to 110
 aliasing errors are usually negligible using standard VASP settings
 and one can safely disregard these warnings

 parallel 3D FFT for wavefunctions:
    minimum data exchange during FFTs selected (reduces bandwidth)
 parallel 3D FFT for charge:
    minimum data exchange during FFTs selected (reduces bandwidth)


 total amount of memory used by VASP on root node   697522. kBytes
========================================================================

   base      :      30000. kBytes
   nonl-proj :     325712. kBytes
   fftplans  :      80881. kBytes
   grid      :      57435. kBytes
   one-center:        497. kBytes
   wavefun   :     202997. kBytes
 
     INWAV:  cpu time    0.0000: real time    0.0000
 Broyden mixing: mesh for mixing (old mesh)
   NGX = 55   NGY = 53   NGZ = 55
  (NGX  =224   NGY  =216   NGZ  =224)
  gives a total of 160325 points

 initial charge density was supplied:
 charge density of overlapping atoms calculated
 number of electron     400.0000000 magnetization 
 keeping initial charge density in first step


--------------------------------------------------------------------------------------------------------


 Maximum index for augmentation-charges        14979 (set IRDMAX)


--------------------------------------------------------------------------------------------------------


 First call to EWALD:  gamma=   0.141
 Maximum number of real-space cells 3x 3x 3
 Maximum number of reciprocal cells 3x 3x 3

 FEWALD executed in parallel
    FEWALD:  cpu time    0.0640: real time    0.0627


----------------------------------------- Iteration    1(   1)  ---------------------------------------


    POTLOK:  cpu time    0.4440: real time    0.4456
    SETDIJ:  cpu time    0.7560: real time    0.7567
     EDDAV:  cpu time   71.0324: real time   71.0811
       DOS:  cpu time    0.0040: real time    0.0006
    --------------------------------------------
      LOOP:  cpu time   72.2405: real time   72.3049

 eigenvalue-minimisations  :  7176
 total energy-change (2. order) : 0.3596485E+04  (-0.1894214E+05)
 number of electron     400.0000000 magnetization 
 augmentation part      400.0000000 magnetization 

 Free energy of the ion-electron system (eV)
  ---------------------------------------------------
  alpha Z        PSCENC =       370.05370877
  Ewald energy   TEWEN  =    -15558.20605741
  -Hartree energ DENC   =     -8099.27625045
  -exchange      EXHF   =         0.00000000
  -V(xc)+E(xc)   XCENC  =       389.46490036
  PAW double counting   =     20601.23165652   -19855.90553853
  entropy T*S    EENTRO =        -0.00000000
  eigenvalues    EBANDS =      1000.11611099
  atomic energy  EATOM  =     24749.00668030
  Solvation  Ediel_sol  =         0.00000000
  ---------------------------------------------------
  free energy    TOTEN  =      3596.48521055 eV

  energy without entropy =     3596.48521055  energy(sigma->0) =     3596.48521055


--------------------------------------------------------------------------------------------------------




----------------------------------------- Iteration    1(   2)  ---------------------------------------


     EDDAV:  cpu time   77.7929: real time   77.8381
       DOS:  cpu time    0.0000: real time    0.0018
    --------------------------------------------
      LOOP:  cpu time   77.7929: real time   77.8675

 eigenvalue-minimisations  :  7952
 total energy-change (2. order) :-0.3392755E+04  (-0.3191436E+04)
 number of electron     400.0000000 magnetization 
 augmentation part      400.0000000 magnetization 

 Free energy of the ion-electron system (eV)
  ---------------------------------------------------
  alpha Z        PSCENC =       370.05370877
  Ewald energy   TEWEN  =    -15558.20605741
  -Hartree energ DENC   =     -8099.27625045
  -exchange      EXHF   =         0.00000000
  -V(xc)+E(xc)   XCENC  =       389.46490036
  PAW double counting   =     20601.23165652   -19855.90553853
  entropy T*S    EENTRO =        -0.00000000
  eigenvalues    EBANDS =     -2392.63918700
  atomic energy  EATOM  =     24749.00668030
  Solvation  Ediel_sol  =         0.00000000
  ---------------------------------------------------
  free energy    TOTEN  =       203.72991256 eV

  energy without entropy =      203.72991256  energy(sigma->0) =      203.72991256


--------------------------------------------------------------------------------------------------------




----------------------------------------- Iteration    1(   3)  ---------------------------------------


     EDDAV:  cpu time   88.7295: real time   88.7842
       DOS:  cpu time    0.0000: real time    0.0010
    --------------------------------------------
      LOOP:  cpu time   88.7335: real time   88.8102

 eigenvalue-minimisations  :  9480
 total energy-change (2. order) :-0.6012458E+03  (-0.5921616E+03)
 number of electron     400.0000000 magnetization 
 augmentation part      400.0000000 magnetization 

 Free energy of the ion-electron system (eV)
  ---------------------------------------------------
  alpha Z        PSCENC =       370.05370877
  Ewald energy   TEWEN  =    -15558.20605741
  -Hartree energ DENC   =     -8099.27625045
  -exchange      EXHF   =         0.00000000
  -V(xc)+E(xc)   XCENC  =       389.46490036
  PAW double counting   =     20601.23165652   -19855.90553853
  entropy T*S    EENTRO =         0.00000000
  eigenvalues    EBANDS =     -2993.88501010
  atomic energy  EATOM  =     24749.00668030
  Solvation  Ediel_sol  =         0.00000000
  ---------------------------------------------------
  free energy    TOTEN  =      -397.51591054 eV

  energy without entropy =     -397.51591054  energy(sigma->0) =     -397.51591054


--------------------------------------------------------------------------------------------------------




----------------------------------------- Iteration    1(   4)  ---------------------------------------


     EDDAV:  cpu time   89.9976: real time   90.0551
       DOS:  cpu time    0.0000: real time    0.0007
    --------------------------------------------
      LOOP:  cpu time   90.0016: real time   90.0969

 eigenvalue-minimisations  :  9672
 total energy-change (2. order) :-0.4079703E+02  (-0.4062123E+02)
 number of electron     400.0000000 magnetization 
 augmentation part      400.0000000 magnetization 

 Free energy of the ion-electron system (eV)
  ---------------------------------------------------
  alpha Z        PSCENC =       370.05370877
  Ewald energy   TEWEN  =    -15558.20605741
  -Hartree energ DENC   =     -8099.27625045
  -exchange      EXHF   =         0.00000000
  -V(xc)+E(xc)   XCENC  =       389.46490036
  PAW double counting   =     20601.23165652   -19855.90553853
  entropy T*S    EENTRO =         0.00000000
  eigenvalues    EBANDS =     -3034.68204392
  atomic energy  EATOM  =     24749.00668030
  Solvation  Ediel_sol  =         0.00000000
  ---------------------------------------------------
  free energy    TOTEN  =      -438.31294436 eV

  energy without entropy =     -438.31294436  energy(sigma->0) =     -438.31294436


--------------------------------------------------------------------------------------------------------




----------------------------------------- Iteration    1(   5)  ---------------------------------------


     EDDAV:  cpu time   91.0577: real time   91.1145
       DOS:  cpu time    0.0040: real time    0.0014
    CHARGE:  cpu time    3.3282: real time    3.3312
    MIXING:  cpu time    0.0120: real time    0.0132
    --------------------------------------------
      LOOP:  cpu time   94.4059: real time   94.5046

 eigenvalue-minimisations  :  9784
 total energy-change (2. order) :-0.1515081E+01  (-0.1512738E+01)
 number of electron     400.0000000 magnetization 
 augmentation part        7.5618823 magnetization 

 Broyden mixing:
  rms(total) = 0.29371E+01    rms(broyden)= 0.29370E+01
  rms(prec ) = 0.34869E+01
  weight for this iteration     100.00

 Free energy of the ion-electron system (eV)
  ---------------------------------------------------
  alpha Z        PSCENC =       370.05370877
  Ewald energy   TEWEN  =    -15558.20605741
  -Hartree energ DENC   =     -8099.27625045
  -exchange      EXHF   =         0.00000000
  -V(xc)+E(xc)   XCENC  =       389.46490036
  PAW double counting   =     20601.23165652   -19855.90553853
  entropy T*S    EENTRO =         0.00000000
  eigenvalues    EBANDS =     -3036.19712453
  atomic energy  EATOM  =     24749.00668030
  Solvation  Ediel_sol  =         0.00000000
  ---------------------------------------------------
  free energy    TOTEN  =      -439.82802497 eV

  energy without entropy =     -439.82802497  energy(sigma->0) =     -439.82802497


--------------------------------------------------------------------------------------------------------




----------------------------------------- Iteration    1(   6)  ---------------------------------------


    POTLOK:  cpu time    0.4360: real time    0.4400
    SETDIJ:  cpu time    0.7560: real time    0.7527
     EDDAV:  cpu time   90.1136: real time   90.1694
       DOS:  cpu time    0.0000: real time    0.0010
    CHARGE:  cpu time    3.3162: real time    3.3185
    MIXING:  cpu time    0.0120: real time    0.0133
    --------------------------------------------
      LOOP:  cpu time   94.6379: real time   94.7191

 eigenvalue-minimisations  :  9720
 total energy-change (2. order) : 0.2031352E+02  (-0.4103202E+01)
 number of electron     400.0000000 magnetization 
 augmentation part        7.8736818 magnetization 

 Broyden mixing:
  rms(total) = 0.15546E+01    rms(broyden)= 0.15546E+01
  rms(prec ) = 0.17324E+01
  weight for this iteration     100.00

 eigenvalues of (default mixing * dielectric matrix)
  average eigenvalue GAMMA=   1.5462
  1.5462

 Free energy of the ion-electron system (eV)
  ---------------------------------------------------
  alpha Z        PSCENC =       370.05370877
  Ewald energy   TEWEN  =    -15558.20605741
  -Hartree energ DENC   =     -8268.91488801
  -exchange      EXHF   =         0.00000000
  -V(xc)+E(xc)   XCENC  =       403.53031277
  PAW double counting   =     23011.85640374   -22264.35751943
  entropy T*S    EENTRO =         0.00000000
  eigenvalues    EBANDS =     -2862.48314520
  atomic energy  EATOM  =     24749.00668030
  Solvation  Ediel_sol  =         0.00000000
  ---------------------------------------------------
  free energy    TOTEN  =      -419.51450447 eV

  energy without entropy =     -419.51450447  energy(sigma->0) =     -419.51450447


--------------------------------------------------------------------------------------------------------




----------------------------------------- Iteration    1(   7)  ---------------------------------------


    POTLOK:  cpu time    0.4400: real time    0.4397
    SETDIJ:  cpu time    0.7520: real time    0.7536
     EDDAV:  cpu time   94.4939: real time   94.5520
       DOS:  cpu time    0.0000: real time    0.0010
    CHARGE:  cpu time    3.3202: real time    3.3217
    MIXING:  cpu time    0.0120: real time    0.0134
    --------------------------------------------
      LOOP:  cpu time   99.0222: real time   99.1242

 eigenvalue-minimisations  : 10280
 total energy-change (2. order) : 0.2447914E+01  (-0.1461192E+01)
 number of electron     400.0000000 magnetization 
 augmentation part        7.9988236 magnetization 

 Broyden mixing:
  rms(total) = 0.77641E+00    rms(broyden)= 0.77639E+00
  rms(prec ) = 0.82836E+00
  weight for this iteration     100.00

 eigenvalues of (default mixing * dielectric matrix)
  average eigenvalue GAMMA=   1.9369
  1.4521  2.4217

 Free energy of the ion-electron system (eV)
  ---------------------------------------------------
  alpha Z        PSCENC =       370.05370877
  Ewald energy   TEWEN  =    -15558.20605741
  -Hartree energ DENC   =     -8355.98556009
  -exchange      EXHF   =         0.00000000
  -V(xc)+E(xc)   XCENC  =       412.95051385
  PAW double counting   =     26060.94967496   -25312.18130095
  entropy T*S    EENTRO =         0.00000000
  eigenvalues    EBANDS =     -2783.65424946
  atomic energy  EATOM  =     24749.00668030
  Solvation  Ediel_sol  =         0.00000000
  ---------------------------------------------------
  free energy    TOTEN  =      -417.06659004 eV

  energy without entropy =     -417.06659004  energy(sigma->0) =     -417.06659004


--------------------------------------------------------------------------------------------------------




----------------------------------------- Iteration    1(   8)  ---------------------------------------


    POTLOK:  cpu time    0.4400: real time    0.4401
    SETDIJ:  cpu time    0.7520: real time    0.7531
     EDDAV:  cpu time   81.1091: real time   81.1609
       DOS:  cpu time    0.0000: real time    0.0010
    CHARGE:  cpu time    3.3162: real time    3.3204
    MIXING:  cpu time    0.0120: real time    0.0136
    --------------------------------------------
      LOOP:  cpu time   85.6374: real time   85.7130

 eigenvalue-minimisations  :  8512
 total energy-change (2. order) : 0.1688312E+00  (-0.3077824E+00)
 number of electron     400.0000000 magnetization 
 augmentation part        7.9256015 magnetization 

 Broyden mixing:
  rms(total) = 0.18356E+00    rms(broyden)= 0.18356E+00
  rms(prec ) = 0.22330E+00
  weight for this iteration     100.00

 eigenvalues of (default mixing * dielectric matrix)
  average eigenvalue GAMMA=   1.6338
  2.3842  1.2585  1.2585

 Free energy of the ion-electron system (eV)
  ---------------------------------------------------
  alpha Z        PSCENC =       370.05370877
  Ewald energy   TEWEN  =    -15558.20605741
  -Hartree energ DENC   =     -8363.87159966
  -exchange      EXHF   =         0.00000000
  -V(xc)+E(xc)   XCENC  =       416.15704700
  PAW double counting   =     28495.90481526   -27748.13328532
  entropy T*S    EENTRO =        -0.00000000
  eigenvalues    EBANDS =     -2777.80906780
  atomic energy  EATOM  =     24749.00668030
  Solvation  Ediel_sol  =         0.00000000
  ---------------------------------------------------
  free energy    TOTEN  =      -416.89775887 eV

  energy without entropy =     -416.89775887  energy(sigma->0) =     -416.89775887


--------------------------------------------------------------------------------------------------------




----------------------------------------- Iteration    1(   9)  ---------------------------------------


    POTLOK:  cpu time    0.4400: real time    0.4407
    SETDIJ:  cpu time    0.7520: real time    0.7529
     EDDAV:  cpu time   87.8255: real time   87.8790
       DOS:  cpu time    0.0040: real time    0.0030
    CHARGE:  cpu time    3.3322: real time    3.3340
    MIXING:  cpu time    0.0120: real time    0.0138
    --------------------------------------------
      LOOP:  cpu time   92.3698: real time   92.4587

 eigenvalue-minimisations  :  9424
 total energy-change (2. order) : 0.7549925E-01  (-0.7661654E-01)
 number of electron     400.0000000 magnetization 
 augmentation part        7.9368237 magnetization 

 Broyden mixing:
  rms(total) = 0.71728E-01    rms(broyden)= 0.71721E-01
  rms(prec ) = 0.80737E-01
  weight for this iteration     100.00

 eigenvalues of (default mixing * dielectric matrix)
  average eigenvalue GAMMA=   1.5390
  2.3245  1.0672  1.4650  1.2993

 Free energy of the ion-electron system (eV)
  ---------------------------------------------------
  alpha Z        PSCENC =       370.05370877
  Ewald energy   TEWEN  =    -15558.20605741
  -Hartree energ DENC   =     -8381.81757338
  -exchange      EXHF   =         0.00000000
  -V(xc)+E(xc)   XCENC  =       417.21493191
  PAW double counting   =     28498.89030446   -27751.20533628
  entropy T*S    EENTRO =         0.00000000
  eigenvalues    EBANDS =     -2760.75891799
  atomic energy  EATOM  =     24749.00668030
  Solvation  Ediel_sol  =         0.00000000
  ---------------------------------------------------
  free energy    TOTEN  =      -416.82225962 eV

  energy without entropy =     -416.82225962  energy(sigma->0) =     -416.82225962


--------------------------------------------------------------------------------------------------------




----------------------------------------- Iteration    1(  10)  ---------------------------------------


    POTLOK:  cpu time    0.4400: real time    0.4400
    SETDIJ:  cpu time    0.7480: real time    0.7514
     EDDAV:  cpu time   83.6212: real time   83.6720
       DOS:  cpu time    0.0040: real time    0.0010
    CHARGE:  cpu time    3.3202: real time    3.3229
    MIXING:  cpu time    0.0120: real time    0.0142
    --------------------------------------------
      LOOP:  cpu time   88.1495: real time   88.2386

 eigenvalue-minimisations  :  8896
 total energy-change (2. order) :-0.1148626E-01  (-0.1095526E-01)
 number of electron     400.0000000 magnetization 
 augmentation part        7.9122598 magnetization 

 Broyden mixing:
  rms(total) = 0.46444E-01    rms(broyden)= 0.46442E-01
  rms(prec ) = 0.53496E-01
  weight for this iteration     100.00

 eigenvalues of (default mixing * dielectric matrix)
  average eigenvalue GAMMA=   1.4599
  2.3879  1.9280  1.0665  1.0665  0.8507

 Free energy of the ion-electron system (eV)
  ---------------------------------------------------
  alpha Z        PSCENC =       370.05370877
  Ewald energy   TEWEN  =    -15558.20605741
  -Hartree energ DENC   =     -8382.69777816
  -exchange      EXHF   =         0.00000000
  -V(xc)+E(xc)   XCENC  =       417.31062845
  PAW double counting   =     28530.21747197   -27782.78979465
  entropy T*S    EENTRO =         0.00000000
  eigenvalues    EBANDS =     -2759.72860514
  atomic energy  EATOM  =     24749.00668030
  Solvation  Ediel_sol  =         0.00000000
  ---------------------------------------------------
  free energy    TOTEN  =      -416.83374587 eV

  energy without entropy =     -416.83374587  energy(sigma->0) =     -416.83374587


--------------------------------------------------------------------------------------------------------




----------------------------------------- Iteration    1(  11)  ---------------------------------------


    POTLOK:  cpu time    0.4360: real time    0.4391
    SETDIJ:  cpu time    0.7600: real time    0.7569
     EDDAV:  cpu time   92.6978: real time   92.7570
       DOS:  cpu time    0.0000: real time    0.0014
    CHARGE:  cpu time    3.3162: real time    3.3192
    MIXING:  cpu time    0.0160: real time    0.0143
    --------------------------------------------
      LOOP:  cpu time   97.2301: real time   97.3355

 eigenvalue-minimisations  : 10040
 total energy-change (2. order) : 0.1712617E-03  (-0.1488379E-02)
 number of electron     400.0000000 magnetization 
 augmentation part        7.9130370 magnetization 

 Broyden mixing:
  rms(total) = 0.19514E-01    rms(broyden)= 0.19514E-01
  rms(prec ) = 0.23230E-01
  weight for this iteration     100.00

 eigenvalues of (default mixing * dielectric matrix)
  average eigenvalue GAMMA=   1.5238
  2.4413  1.9695  1.5426  1.1049  1.0421  1.0421

 Free energy of the ion-electron system (eV)
  ---------------------------------------------------
  alpha Z        PSCENC =       370.05370877
  Ewald energy   TEWEN  =    -15558.20605741
  -Hartree energ DENC   =     -8381.91879550
  -exchange      EXHF   =         0.00000000
  -V(xc)+E(xc)   XCENC  =       417.32738587
  PAW double counting   =     28567.37366946   -27820.03087195
  entropy T*S    EENTRO =         0.00000000
  eigenvalues    EBANDS =     -2760.43929415
  atomic energy  EATOM  =     24749.00668030
  Solvation  Ediel_sol  =         0.00000000
  ---------------------------------------------------
  free energy    TOTEN  =      -416.83357461 eV

  energy without entropy =     -416.83357461  energy(sigma->0) =     -416.83357461


--------------------------------------------------------------------------------------------------------




----------------------------------------- Iteration    1(  12)  ---------------------------------------


    POTLOK:  cpu time    0.4400: real time    0.4398
    SETDIJ:  cpu time    0.7560: real time    0.7564
     EDDAV:  cpu time   90.3776: real time   90.4383
       DOS:  cpu time    0.0040: real time    0.0019
    CHARGE:  cpu time    3.3202: real time    3.3208
    MIXING:  cpu time    0.0120: real time    0.0146
    --------------------------------------------
      LOOP:  cpu time   94.9099: real time   95.0164

 eigenvalue-minimisations  :  9760
 total energy-change (2. order) :-0.1358853E-02  (-0.8994146E-03)
 number of electron     400.0000000 magnetization 
 augmentation part        7.9242569 magnetization 

 Broyden mixing:
  rms(total) = 0.10522E-01    rms(broyden)= 0.10521E-01
  rms(prec ) = 0.12579E-01
  weight for this iteration     100.00

 eigenvalues of (default mixing * dielectric matrix)
  average eigenvalue GAMMA=   1.4748
  2.6086  2.3050  1.3081  1.3081  0.9219  0.9361  0.9361

 Free energy of the ion-electron system (eV)
  ---------------------------------------------------
  alpha Z        PSCENC =       370.05370877
  Ewald energy   TEWEN  =    -15558.20605741
  -Hartree energ DENC   =     -8382.39847894
  -exchange      EXHF   =         0.00000000
  -V(xc)+E(xc)   XCENC  =       417.38851806
  PAW double counting   =     28557.75532296   -27810.44040007
  entropy T*S    EENTRO =        -0.00000000
  eigenvalues    EBANDS =     -2759.99422713
  atomic energy  EATOM  =     24749.00668030
  Solvation  Ediel_sol  =         0.00000000
  ---------------------------------------------------
  free energy    TOTEN  =      -416.83493346 eV

  energy without entropy =     -416.83493346  energy(sigma->0) =     -416.83493346


--------------------------------------------------------------------------------------------------------




----------------------------------------- Iteration    1(  13)  ---------------------------------------


    POTLOK:  cpu time    0.4360: real time    0.4380
    SETDIJ:  cpu time    0.7560: real time    0.7540
     EDDAV:  cpu time   80.1170: real time   80.1684
       DOS:  cpu time    0.0000: real time    0.0012
    CHARGE:  cpu time    3.3162: real time    3.3165
    MIXING:  cpu time    0.0160: real time    0.0149
    --------------------------------------------
      LOOP:  cpu time   84.6453: real time   84.7357

 eigenvalue-minimisations  :  8352
 total energy-change (2. order) :-0.1520335E-03  (-0.1348584E-03)
 number of electron     400.0000000 magnetization 
 augmentation part        7.9226970 magnetization 

 Broyden mixing:
  rms(total) = 0.73014E-02    rms(broyden)= 0.73012E-02
  rms(prec ) = 0.83461E-02
  weight for this iteration     100.00

 eigenvalues of (default mixing * dielectric matrix)
  average eigenvalue GAMMA=   1.4427
  2.6144  2.3442  1.4668  1.2557  0.9470  0.9470  0.9831  0.9831

 Free energy of the ion-electron system (eV)
  ---------------------------------------------------
  alpha Z        PSCENC =       370.05370877
  Ewald energy   TEWEN  =    -15558.20605741
  -Hartree energ DENC   =     -8382.67775369
  -exchange      EXHF   =         0.00000000
  -V(xc)+E(xc)   XCENC  =       417.41294882
  PAW double counting   =     28557.50560910   -27810.20591278
  entropy T*S    EENTRO =        -0.00000000
  eigenvalues    EBANDS =     -2759.72430861
  atomic energy  EATOM  =     24749.00668030
  Solvation  Ediel_sol  =         0.00000000
  ---------------------------------------------------
  free energy    TOTEN  =      -416.83508550 eV

  energy without entropy =     -416.83508550  energy(sigma->0) =     -416.83508550


--------------------------------------------------------------------------------------------------------




----------------------------------------- Iteration    1(  14)  ---------------------------------------


    POTLOK:  cpu time    0.4400: real time    0.4389
    SETDIJ:  cpu time    0.7560: real time    0.7561
     EDDAV:  cpu time   81.1771: real time   81.2276
       DOS:  cpu time    0.0000: real time    0.0017
    CHARGE:  cpu time    3.3202: real time    3.3186
    MIXING:  cpu time    0.0120: real time    0.0152
    --------------------------------------------
      LOOP:  cpu time   85.7054: real time   85.7990

 eigenvalue-minimisations  :  8616
 total energy-change (2. order) :-0.3362675E-04  (-0.2922761E-04)
 number of electron     400.0000000 magnetization 
 augmentation part        7.9228492 magnetization 

 Broyden mixing:
  rms(total) = 0.32092E-02    rms(broyden)= 0.32091E-02
  rms(prec ) = 0.37262E-02
  weight for this iteration     100.00

 eigenvalues of (default mixing * dielectric matrix)
  average eigenvalue GAMMA=   1.5345
  2.7470  2.7470  1.8939  1.0490  1.0490  1.3067  0.9439  1.0373  1.0373

 Free energy of the ion-electron system (eV)
  ---------------------------------------------------
  alpha Z        PSCENC =       370.05370877
  Ewald energy   TEWEN  =    -15558.20605741
  -Hartree energ DENC   =     -8383.00823770
  -exchange      EXHF   =         0.00000000
  -V(xc)+E(xc)   XCENC  =       417.43411016
  PAW double counting   =     28552.82218263   -27805.50999369
  entropy T*S    EENTRO =        -0.00000000
  eigenvalues    EBANDS =     -2759.42751218
  atomic energy  EATOM  =     24749.00668030
  Solvation  Ediel_sol  =         0.00000000
  ---------------------------------------------------
  free energy    TOTEN  =      -416.83511912 eV

  energy without entropy =     -416.83511912  energy(sigma->0) =     -416.83511912


--------------------------------------------------------------------------------------------------------




----------------------------------------- Iteration    1(  15)  ---------------------------------------


    POTLOK:  cpu time    0.4360: real time    0.4377
    SETDIJ:  cpu time    0.7560: real time    0.7544
     EDDAV:  cpu time   78.3529: real time   78.4047
       DOS:  cpu time    0.0000: real time    0.0017
    CHARGE:  cpu time    3.3202: real time    3.3217
    MIXING:  cpu time    0.0160: real time    0.0156
    --------------------------------------------
[...]
   0.116E+02 0.370E-01 0.492E+02   -.120E+02 -.427E-01 -.545E+02   0.398E+00 0.578E-02 0.558E+01   -.915E-08 0.407E-08 0.291E-07
   -.106E+00 0.537E-01 0.521E+02   0.108E+01 -.590E-01 -.573E+02   -.102E+01 0.538E-02 0.551E+01   -.346E-07 0.901E-08 0.530E-07
   0.287E+02 -.390E+02 -.149E+02   -.313E+02 0.435E+02 0.168E+02   0.267E+01 -.460E+01 -.198E+01   0.523E-08 -.385E-07 -.116E-07
   0.317E+02 -.393E+02 -.530E+01   -.346E+02 0.438E+02 0.657E+01   0.303E+01 -.461E+01 -.129E+01   0.207E-07 -.635E-07 -.122E-07
   0.317E+02 -.393E+02 -.530E+01   -.346E+02 0.438E+02 0.657E+01   0.303E+01 -.461E+01 -.129E+01   0.331E-07 -.565E-07 -.216E-07
   0.287E+02 -.390E+02 -.149E+02   -.313E+02 0.435E+02 0.168E+02   0.267E+01 -.460E+01 -.198E+01   -.537E-08 -.278E-07 -.835E-08
   0.317E+02 -.393E+02 -.530E+01   -.346E+02 0.438E+02 0.657E+01   0.303E+01 -.461E+01 -.129E+01   0.400E-07 -.682E-07 -.366E-07
   0.287E+02 -.390E+02 -.149E+02   -.313E+02 0.435E+02 0.168E+02   0.267E+01 -.460E+01 -.198E+01   -.989E-08 -.454E-07 -.352E-07
   0.287E+02 -.390E+02 -.149E+02   -.313E+02 0.435E+02 0.168E+02   0.267E+01 -.460E+01 -.198E+01   0.479E-08 -.271E-07 -.280E-07
   0.317E+02 -.393E+02 -.530E+01   -.346E+02 0.438E+02 0.657E+01   0.303E+01 -.461E+01 -.129E+01   0.223E-07 -.478E-07 -.379E-07
   0.286E+02 0.390E+02 -.149E+02   -.312E+02 -.435E+02 0.169E+02   0.266E+01 0.460E+01 -.199E+01   0.221E-08 0.327E-07 -.147E-07
   0.316E+02 0.393E+02 -.538E+01   -.346E+02 -.438E+02 0.667E+01   0.303E+01 0.460E+01 -.130E+01   0.242E-07 0.523E-07 -.141E-07
   0.316E+02 0.393E+02 -.538E+01   -.346E+02 -.438E+02 0.667E+01   0.303E+01 0.460E+01 -.130E+01   0.364E-07 0.622E-07 -.172E-07
   0.286E+02 0.390E+02 -.149E+02   -.312E+02 -.435E+02 0.169E+02   0.266E+01 0.460E+01 -.199E+01   -.886E-08 0.385E-07 -.598E-08
   0.316E+02 0.393E+02 -.538E+01   -.346E+02 -.438E+02 0.667E+01   0.303E+01 0.460E+01 -.130E+01   0.344E-07 0.523E-07 -.344E-07
   0.286E+02 0.390E+02 -.149E+02   -.312E+02 -.435E+02 0.169E+02   0.266E+01 0.460E+01 -.199E+01   -.904E-08 0.248E-07 -.315E-07
   0.286E+02 0.390E+02 -.149E+02   -.312E+02 -.435E+02 0.169E+02   0.266E+01 0.460E+01 -.199E+01   0.102E-07 0.429E-07 -.308E-07
   0.316E+02 0.393E+02 -.538E+01   -.346E+02 -.438E+02 0.667E+01   0.303E+01 0.460E+01 -.130E+01   0.210E-07 0.684E-07 -.431E-07
   -.305E+02 -.482E+02 0.202E+02   0.338E+02 0.536E+02 -.225E+02   -.334E+01 -.548E+01 0.230E+01   0.478E-07 0.953E-07 -.260E-07
   -.361E+02 -.477E+02 0.144E+02   0.397E+02 0.531E+02 -.159E+02   -.374E+01 -.546E+01 0.143E+01   0.230E-07 0.515E-07 -.184E-07
   -.361E+02 -.477E+02 0.144E+02   0.397E+02 0.531E+02 -.159E+02   -.374E+01 -.546E+01 0.143E+01   0.337E-07 0.615E-07 -.160E-07
   -.305E+02 -.482E+02 0.202E+02   0.338E+02 0.536E+02 -.225E+02   -.334E+01 -.548E+01 0.230E+01   0.370E-07 0.106E-06 -.323E-07
   -.361E+02 -.477E+02 0.144E+02   0.397E+02 0.531E+02 -.159E+02   -.374E+01 -.546E+01 0.143E+01   0.338E-07 0.534E-07 -.433E-07
   -.305E+02 -.482E+02 0.202E+02   0.338E+02 0.536E+02 -.225E+02   -.334E+01 -.548E+01 0.230E+01   0.321E-07 0.765E-07 -.529E-07
   -.305E+02 -.482E+02 0.202E+02   0.338E+02 0.536E+02 -.225E+02   -.334E+01 -.548E+01 0.230E+01   0.517E-07 0.108E-06 -.540E-07
   -.361E+02 -.477E+02 0.144E+02   0.397E+02 0.531E+02 -.159E+02   -.374E+01 -.546E+01 0.143E+01   0.229E-07 0.737E-07 -.371E-07
   -.306E+02 0.481E+02 0.201E+02   0.339E+02 -.535E+02 -.224E+02   -.335E+01 0.548E+01 0.229E+01   0.471E-07 -.969E-07 -.297E-07
   -.361E+02 0.478E+02 0.143E+02   0.397E+02 -.531E+02 -.157E+02   -.374E+01 0.547E+01 0.142E+01   0.228E-07 -.672E-07 -.197E-07
   -.361E+02 0.478E+02 0.143E+02   0.397E+02 -.531E+02 -.157E+02   -.374E+01 0.547E+01 0.142E+01   0.346E-07 -.628E-07 -.125E-07
   -.306E+02 0.481E+02 0.201E+02   0.339E+02 -.535E+02 -.224E+02   -.335E+01 0.548E+01 0.229E+01   0.369E-07 -.892E-07 -.284E-07
   -.361E+02 0.478E+02 0.143E+02   0.397E+02 -.531E+02 -.157E+02   -.374E+01 0.547E+01 0.142E+01   0.380E-07 -.707E-07 -.410E-07
   -.306E+02 0.481E+02 0.201E+02   0.339E+02 -.535E+02 -.224E+02   -.335E+01 0.548E+01 0.229E+01   0.374E-07 -.108E-06 -.492E-07
   -.306E+02 0.481E+02 0.201E+02   0.339E+02 -.535E+02 -.224E+02   -.335E+01 0.548E+01 0.229E+01   0.481E-07 -.926E-07 -.576E-07
   -.361E+02 0.478E+02 0.143E+02   0.397E+02 -.531E+02 -.157E+02   -.374E+01 0.547E+01 0.142E+01   0.176E-07 -.404E-07 -.407E-07
   -.441E+01 -.541E-01 -.599E+02   0.519E+01 0.585E-01 0.661E+02   -.890E+00 -.401E-02 -.651E+01   0.109E-07 -.288E-10 0.125E-06
   0.105E+02 -.795E-01 -.644E+02   -.115E+02 0.903E-01 0.711E+02   0.971E+00 -.106E-01 -.691E+01   -.355E-07 -.901E-08 0.689E-07
   0.105E+02 -.795E-01 -.644E+02   -.115E+02 0.903E-01 0.711E+02   0.971E+00 -.106E-01 -.691E+01   -.156E-07 -.186E-08 0.691E-07
   -.441E+01 -.541E-01 -.599E+02   0.519E+01 0.585E-01 0.661E+02   -.890E+00 -.401E-02 -.651E+01   -.859E-08 0.762E-08 0.119E-06
   0.105E+02 -.795E-01 -.644E+02   -.115E+02 0.903E-01 0.711E+02   0.971E+00 -.106E-01 -.691E+01   -.219E-07 -.808E-08 0.549E-07
   -.441E+01 -.541E-01 -.599E+02   0.519E+01 0.585E-01 0.661E+02   -.890E+00 -.401E-02 -.651E+01   -.761E-08 -.162E-07 0.104E-06
   -.441E+01 -.541E-01 -.599E+02   0.519E+01 0.585E-01 0.661E+02   -.890E+00 -.401E-02 -.651E+01   0.116E-09 0.879E-08 0.976E-07
   0.105E+02 -.795E-01 -.644E+02   -.115E+02 0.903E-01 0.711E+02   0.971E+00 -.106E-01 -.691E+01   -.346E-07 0.184E-07 0.522E-07
   -.303E+02 0.779E+01 -.112E+02   0.292E+02 -.775E+01 0.109E+02   0.107E+01 -.563E-01 0.284E+00   -.253E-07 -.434E-07 -.807E-07
   -.303E+02 -.766E+01 -.112E+02   0.292E+02 0.760E+01 0.109E+02   0.107E+01 0.660E-01 0.285E+00   0.680E-07 -.531E-07 -.125E-06
   -.303E+02 -.766E+01 -.112E+02   0.292E+02 0.760E+01 0.109E+02   0.107E+01 0.660E-01 0.285E+00   0.174E-06 0.417E-07 0.761E-07
   -.303E+02 0.779E+01 -.112E+02   0.292E+02 -.775E+01 0.109E+02   0.107E+01 -.563E-01 0.284E+00   -.119E-06 0.597E-07 0.213E-07
   -.303E+02 -.766E+01 -.112E+02   0.292E+02 0.760E+01 0.109E+02   0.107E+01 0.660E-01 0.285E+00   -.127E-06 -.141E-06 0.373E-07
   -.303E+02 0.779E+01 -.112E+02   0.292E+02 -.775E+01 0.109E+02   0.107E+01 -.563E-01 0.284E+00   0.165E-06 -.675E-07 0.876E-07
   -.303E+02 0.779E+01 -.112E+02   0.292E+02 -.775E+01 0.109E+02   0.107E+01 -.563E-01 0.284E+00   0.759E-07 0.775E-07 -.893E-07
   -.303E+02 -.766E+01 -.112E+02   0.292E+02 0.760E+01 0.109E+02   0.107E+01 0.660E-01 0.285E+00   -.475E-07 0.142E-07 -.768E-08
   -.169E+02 -.348E+01 0.538E+01   0.171E+02 0.357E+01 -.532E+01   -.134E+00 -.814E-01 -.631E-01   0.205E-07 0.143E-07 0.180E-06
   -.171E+02 0.357E+01 0.537E+01   0.172E+02 -.365E+01 -.531E+01   -.136E+00 0.823E-01 -.633E-01   0.215E-07 -.453E-07 0.116E-06
   -.171E+02 0.357E+01 0.537E+01   0.172E+02 -.365E+01 -.531E+01   -.136E+00 0.823E-01 -.633E-01   0.534E-07 -.122E-07 0.920E-07
   -.169E+02 -.348E+01 0.538E+01   0.171E+02 0.357E+01 -.532E+01   -.134E+00 -.814E-01 -.631E-01   -.676E-08 0.437E-07 0.309E-07
   -.171E+02 0.357E+01 0.537E+01   0.172E+02 -.365E+01 -.531E+01   -.136E+00 0.823E-01 -.633E-01   0.164E-07 -.459E-07 -.183E-06
   -.169E+02 -.348E+01 0.538E+01   0.171E+02 0.357E+01 -.532E+01   -.134E+00 -.814E-01 -.631E-01   0.263E-07 0.234E-07 -.116E-06
   -.169E+02 -.348E+01 0.538E+01   0.171E+02 0.357E+01 -.532E+01   -.134E+00 -.814E-01 -.631E-01   0.479E-07 0.434E-07 -.101E-06
   -.171E+02 0.357E+01 0.537E+01   0.172E+02 -.365E+01 -.531E+01   -.136E+00 0.823E-01 -.633E-01   0.173E-08 -.185E-07 -.383E-07
   -.373E+02 -.518E-01 -.108E+02   0.376E+02 0.530E-01 0.112E+02   -.235E+00 -.957E-03 -.485E+00   0.299E-07 -.101E-06 0.201E-08
   0.933E+01 -.532E-01 -.178E+02   -.974E+01 0.544E-01 0.186E+02   0.423E+00 -.104E-02 -.889E+00   -.280E-07 -.143E-06 0.869E-07
   0.933E+01 -.532E-01 -.178E+02   -.974E+01 0.544E-01 0.186E+02   0.423E+00 -.104E-02 -.889E+00   -.858E-08 0.921E-07 0.683E-07
   -.373E+02 -.518E-01 -.108E+02   0.376E+02 0.530E-01 0.112E+02   -.235E+00 -.957E-03 -.485E+00   0.444E-07 0.141E-06 0.166E-07
   0.933E+01 -.532E-01 -.178E+02   -.974E+01 0.544E-01 0.186E+02   0.423E+00 -.104E-02 -.889E+00   0.419E-07 -.146E-07 0.434E-07
   -.373E+02 -.518E-01 -.108E+02   0.376E+02 0.530E-01 0.112E+02   -.235E+00 -.957E-03 -.485E+00   0.247E-07 -.626E-07 -.255E-07
   -.373E+02 -.518E-01 -.108E+02   0.376E+02 0.530E-01 0.112E+02   -.235E+00 -.957E-03 -.485E+00   0.415E-07 0.172E-07 -.216E-07
   0.933E+01 -.532E-01 -.178E+02   -.974E+01 0.544E-01 0.186E+02   0.423E+00 -.104E-02 -.889E+00   -.459E-07 0.664E-07 0.422E-07
   0.513E+01 0.236E+01 -.541E+01   -.460E+01 -.218E+01 0.502E+01   -.552E+00 -.186E+00 0.465E+00   0.123E-06 -.777E-08 -.570E-08
   0.513E+01 -.237E+01 -.548E+01   -.461E+01 0.219E+01 0.509E+01   -.552E+00 0.185E+00 0.465E+00   -.156E-06 -.183E-07 -.555E-08
   0.513E+01 -.237E+01 -.548E+01   -.461E+01 0.219E+01 0.509E+01   -.552E+00 0.185E+00 0.465E+00   0.812E-07 0.172E-07 0.188E-07
   0.513E+01 0.236E+01 -.541E+01   -.460E+01 -.218E+01 0.502E+01   -.552E+00 -.186E+00 0.465E+00   -.112E-06 0.176E-08 0.127E-07
   0.513E+01 -.237E+01 -.548E+01   -.461E+01 0.219E+01 0.509E+01   -.552E+00 0.185E+00 0.465E+00   0.739E-07 -.421E-07 -.241E-07
   0.513E+01 0.236E+01 -.541E+01   -.460E+01 -.218E+01 0.502E+01   -.552E+00 -.186E+00 0.465E+00   -.856E-07 0.212E-07 -.211E-07
   0.513E+01 0.236E+01 -.541E+01   -.460E+01 -.218E+01 0.502E+01   -.552E+00 -.186E+00 0.465E+00   0.236E-07 0.641E-08 -.274E-07
   0.513E+01 -.237E+01 -.548E+01   -.461E+01 0.219E+01 0.509E+01   -.552E+00 0.185E+00 0.465E+00   -.519E-07 0.259E-07 -.269E-07
 -----------------------------------------------------------------------------------------------
   -.547E+02 -.952E-01 -.216E+02   -.702E-12 0.617E-13 0.888E-13   0.547E+02 0.952E-01 0.216E+02   -.257E-05 -.123E-06 -.134E-05
 
 
 POSITION                                       TOTAL-FORCE (eV/Angst)
 -----------------------------------------------------------------------------------
      2.51886      3.11293      2.94104         0.165472     -0.000569     -0.088089
      8.78911      3.11531      3.01830         0.192380     -0.000677     -0.034999
      2.50129      9.34312      2.94883         0.192380     -0.000677     -0.034999
      8.80787      9.34266      3.00976         0.165472     -0.000569     -0.088089
      2.57040      3.11440      9.32291         0.192380     -0.000677     -0.034999
      8.87698      3.11393      9.38385         0.165472     -0.000569     -0.088089
      2.58916      9.34174      9.31437         0.165472     -0.000569     -0.088089
      8.85941      9.34412      9.39164         0.192380     -0.000677     -0.034999
      3.95108      3.11459      3.35840        -0.061249     -0.000846      0.063923
     10.07453      3.11644      3.77713        -0.078356     -0.001011     -0.039486
      3.78671      9.34425      3.70766        -0.078356     -0.001011     -0.039486
     10.24010      9.34432      3.42713        -0.061249     -0.000846      0.063923
      3.85582      3.11553     10.08174        -0.078356     -0.001011     -0.039486
     10.30920      3.11559      9.80121        -0.061249     -0.000846      0.063923
      4.02138      9.34341      9.73174        -0.061249     -0.000846      0.063923
     10.14484      9.34526     10.15047        -0.078356     -0.001011     -0.039486
      2.46832      3.11183      1.83390         0.036053      0.000096      0.283472
      9.01893      3.11425      1.93443        -0.050231      0.000076      0.286349
      2.73111      9.34206      1.86496        -0.050231      0.000076      0.286349
      8.75734      9.34156      1.90263         0.036053      0.000096      0.283472
      2.80022      3.11333      8.23904        -0.050231      0.000076      0.286349
      8.82644      3.11284      8.27671         0.036053      0.000096      0.283472
      2.53862      9.34065      8.20724         0.036053      0.000096      0.283472
      9.08923      9.34306      8.30777        -0.050231      0.000076      0.286349
      2.02550      4.01430      3.33915         0.078437     -0.049835     -0.029465
      8.21709      4.01872      3.28644         0.081549     -0.050194     -0.012168
      1.92927     10.24653      3.21697         0.081549     -0.050194     -0.012168
      8.31452     10.24403      3.40788         0.078437     -0.049835     -0.029465
      1.99838      4.01781      9.59106         0.081549     -0.050194     -0.012168
      8.38363      4.01531      9.78196         0.078437     -0.049835     -0.029465
      2.09581     10.24312      9.71249         0.078437     -0.049835     -0.029465
      8.28740     10.24753      9.65978         0.081549     -0.050194     -0.012168
      2.02727      2.21131      3.34086         0.078153      0.050543     -0.030175
      8.21765      2.21211      3.28843         0.081472      0.050810     -0.012858
      1.92983      8.43992      3.21896         0.081472      0.050810     -0.012858
      8.31629      8.44104      3.40959         0.078153      0.050543     -0.030175
      1.99894      2.21120      9.59304         0.081472      0.050810     -0.012858
      8.38540      2.21232      9.78367         0.078153      0.050543     -0.030175
      2.09758      8.44013      9.71420         0.078153      0.050543     -0.030175
      8.28796      8.44093      9.66177         0.081472      0.050810     -0.012858
      4.46214      3.95928      3.00502        -0.098557     -0.071867      0.038587
     10.65382      3.96292      3.55282        -0.110083     -0.076546      0.014577
      4.36600     10.19073      3.48335        -0.110083     -0.076546      0.014577
     10.75116     10.18900      3.07375        -0.098557     -0.071867      0.038587
      4.43511      3.96201      9.85744        -0.110083     -0.076546      0.014577
     10.82026      3.96028      9.44783        -0.098557     -0.071867      0.038587
      4.53244     10.18809      9.37836        -0.098557     -0.071867      0.038587
     10.72412     10.19174      9.92616        -0.110083     -0.076546      0.014577
      4.46360      2.27021      3.00621        -0.099488      0.072408      0.037869
     10.65385      2.26928      3.55528        -0.110786      0.077219      0.013529
      4.36603      8.49710      3.48581        -0.110786      0.077219      0.013529
     10.75262      8.49994      3.07494        -0.099488      0.072408      0.037869
      4.43514      2.26837      9.85989        -0.110786      0.077219      0.013529
     10.82172      2.27121      9.44902        -0.099488      0.072408      0.037869
      4.53390      8.49902      9.37955        -0.099488      0.072408      0.037869
     10.72415      8.49810      9.92862        -0.110786      0.077219      0.013529
      4.08933      3.11525      4.40692        -0.108214      0.000361     -0.270977
      9.92468      3.11803      4.81180        -0.002152      0.000148     -0.261128
      3.63686      9.34584      4.74233        -0.002152      0.000148     -0.261128
     10.37835      9.34498      4.47565        -0.108214      0.000361     -0.270977
      3.70597      3.11711     11.11641        -0.002152      0.000148     -0.261128
     10.44745      3.11626     10.84973        -0.108214      0.000361     -0.270977
      4.15963      9.34407     10.78026        -0.108214      0.000361     -0.270977
      9.99498      9.34684     11.18513        -0.002152      0.000148     -0.261128
      6.01052      6.20725      6.29594         0.001849     -0.007803     -0.003444
     12.29903      6.25289      6.36516         0.001905      0.007447     -0.003369
      6.01002      0.02316      6.29644         0.001905      0.007447     -0.003369
     12.29954     12.43698      6.36467         0.001849     -0.007803     -0.003444
      6.08032      6.25198     12.66977         0.001905      0.007447     -0.003369
     12.36864      6.20825     12.73875         0.001849     -0.007803     -0.003444
      6.08082     12.43606     12.66928         0.001849     -0.007803     -0.003444
     12.36814      0.02417     12.73925         0.001905      0.007447     -0.003369
      5.75243      6.27580      3.09093         0.004817      0.003659     -0.000572
     12.04190      6.18426      3.15999         0.004914     -0.004102     -0.000564
      5.75407     12.41207      3.09052         0.004914     -0.004102     -0.000564
     12.04025      0.04799      3.16040         0.004817      0.003659     -0.000572
      5.82318      6.18335      9.46460         0.004914     -0.004102     -0.000564
     12.11056      6.27680      9.53374         0.004817      0.003659     -0.000572
      5.82154      0.04707      9.46501         0.004817      0.003659     -0.000572
     12.11220     12.41307      9.53333         0.004914     -0.004102     -0.000564
      6.00296      3.11496      0.20091         0.035264      0.000240     -0.030336
     11.59934      3.11597      0.29375         0.006846      0.000238     -0.058009
      5.31151      9.34378      0.22428         0.006846      0.000238     -0.058009
     12.29198      9.34468      0.26964         0.035264      0.000240     -0.030336
      5.38062      3.11506      6.59837         0.006846      0.000238     -0.058009
     12.36109      3.11596      6.64372         0.035264      0.000240     -0.030336
      6.07327      9.34377      6.57425         0.035264      0.000240     -0.030336
     11.66964      9.34479      6.66709         0.006846      0.000238     -0.058009
      2.78361      6.62255      5.90951        -0.024925     -0.005367      0.068495
      9.07211      5.83679      5.97782        -0.025069      0.005572      0.068837
      2.78429     12.06461      5.90835        -0.025069      0.005572      0.068837
      9.07143      0.39474      5.97899        -0.024925     -0.005367      0.068495
      2.85340      5.83588     12.28243        -0.025069      0.005572      0.068837
      9.14173      6.62355     12.35232        -0.024925     -0.005367      0.068495
      2.85272      0.39382     12.28360        -0.024925     -0.005367      0.068495
      9.14242     12.06561     12.35116        -0.025069      0.005572      0.068837
 -----------------------------------------------------------------------------------
    total drift:                                0.003077     -0.000045     -0.000572


--------------------------------------------------------------------------------------------------------



  FREE ENERGIE OF THE ION-ELECTRON SYSTEM (eV)
  ---------------------------------------------------
  free  energy   TOTEN  =      -416.83516776 eV

  energy  without entropy=     -416.83516776  energy(sigma->0) =     -416.83516776
 


--------------------------------------------------------------------------------------------------------


    POTLOK:  cpu time    1.3201: real time    1.3181


--------------------------------------------------------------------------------------------------------


     LOOP+:  cpu time 2866.1751: real time 2869.1287
    4ORBIT:  cpu time    0.0000: real time    0.0000

 total amount of memory used by VASP on root node   697522. kBytes
========================================================================

   base      :      30000. kBytes
   nonl-proj :     325712. kBytes
   fftplans  :      80881. kBytes
   grid      :      57435. kBytes
   one-center:        497. kBytes
   wavefun   :     202997. kBytes
 
  
  
 General timing and accounting informations for this job:
 ========================================================
  
                  Total CPU time used (sec):     2895.865
                            User time (sec):     2894.577
                          System time (sec):        1.288
                         Elapsed time (sec):     2901.154
  
                   Maximum memory used (kb):      647976.
                   Average memory used (kb):           0.
  
                          Minor page faults:       271821
                          Major page faults:            0
                 Voluntary context switches:         1001
