 running on   96 total cores
 distrk:  each k-point on   24 cores,    4 groups
 distr:  one band on    3 cores,    8 groups
 using from now: INCAR     
 vasp.5.4.1 24Jun15 (build Nov 25 2015 16:01:35) complex                        
  
 POSCAR found type information on POSCAR  C  N  H  Pb I 
 POSCAR found :  5 types and      96 ions
 scaLAPACK will be used

 ----------------------------------------------------------------------------- 
|                                                                             |
|           W    W    AA    RRRRR   N    N  II  N    N   GGGG   !!!           |
|           W    W   A  A   R    R  NN   N  II  NN   N  G    G  !!!           |
|           W    W  A    A  R    R  N N  N  II  N N  N  G       !!!           |
|           W WW W  AAAAAA  RRRRR   N  N N  II  N  N N  G  GGG   !            |
|           WW  WW  A    A  R   R   N   NN  II  N   NN  G    G                |
|           W    W  A    A  R    R  N    N  II  N    N   GGGG   !!!           |
|                                                                             |
|      For optimal performance we recommend to set                            |
|        NCORE= 4 - approx SQRT( number of cores)                             |
|      NCORE specifies how many cores store one orbital (NPAR=cpu/NCORE).     |
|      This setting can  greatly improve the performance of VASP for DFT.     |
|      The default, NPAR=number of cores might be grossly inefficient         |
|      on modern multi-core architectures or massively parallel machines.     |
|      Do your own testing !!!!                                               |
|      Unfortunately you need to use the default for GW and RPA calculations. |
|      (for HF NCORE is supported but not extensively tested yet)             |
|                                                                             |
 ----------------------------------------------------------------------------- 


 ----------------------------------------------------------------------------- 
|                                                                             |
|           W    W    AA    RRRRR   N    N  II  N    N   GGGG   !!!           |
|           W    W   A  A   R    R  NN   N  II  NN   N  G    G  !!!           |
|           W    W  A    A  R    R  N N  N  II  N N  N  G       !!!           |
|           W WW W  AAAAAA  RRRRR   N  N N  II  N  N N  G  GGG   !            |
|           WW  WW  A    A  R   R   N   NN  II  N   NN  G    G                |
|           W    W  A    A  R    R  N    N  II  N    N   GGGG   !!!           |
|                                                                             |
|      You have enabled k-point parallelism (KPAR>1).                         |
|      This developmental code was originally  written by Paul Kent at ORNL,  |
|      and carefully double checked in Vienna.                                |
|      GW as well as linear response parallelism added by Martijn Marsman     |
|      and Georg Kresse.                                                      |
|      Carefully verify results versus KPAR=1.                                |
|      Report problems to Paul Kent and Vienna.                               |
|                                                                             |
 ----------------------------------------------------------------------------- 


 ----------------------------------------------------------------------------- 
|                                                                             |
|  ADVICE TO THIS USER RUNNING 'VASP/VAMP'   (HEAR YOUR MASTER'S VOICE ...):  |
|                                                                             |
|      You have a (more or less) 'large supercell' and for larger cells       |
|      it might be more efficient to use real space projection opertators     |
|      So try LREAL= Auto  in the INCAR   file.                               |
|      Mind: At the moment your POTCAR file does not contain real space       |
|       projectors, and has to be modified,  BUT if you                       |
|      want to do an extremely  accurate calculation you might also keep the  |
|      reciprocal projection scheme          (i.e. LREAL=.FALSE.)             |
|                                                                             |
 ----------------------------------------------------------------------------- 


 ----------------------------------------------------------------------------- 
|                                                                             |
|  ADVICE TO THIS USER RUNNING 'VASP/VAMP'   (HEAR YOUR MASTER'S VOICE ...):  |
|                                                                             |
|      You enforced a specific xc-type in the INCAR file,                     |
|      a different type was found on the POTCAR file                          |
|          I HOPE YOU KNOW, WHAT YOU ARE  DOING                               |
|                                                                             |
 ----------------------------------------------------------------------------- 

 LDA part: xc-table for Pade appr. of Perdew
 POSCAR, INCAR and KPOINTS ok, starting setup
 WARNING: small aliasing (wrap around) errors must be expected
 FFT: planning ...
 WAVECAR not read
 entering main loop
       N       E                     dE             d eps       ncg     rms          rms(c)
DAV:   1     0.359648521055E+04    0.35965E+04   -0.18942E+05  7176   0.170E+03
DAV:   2     0.203729912562E+03   -0.33928E+04   -0.31914E+04  7952   0.354E+02
DAV:   3    -0.397515910542E+03   -0.60125E+03   -0.59216E+03  9480   0.172E+02
DAV:   4    -0.438312944360E+03   -0.40797E+02   -0.40621E+02  9672   0.491E+01
DAV:   5    -0.439828024972E+03   -0.15151E+01   -0.15127E+01  9784   0.917E+00    0.294E+01
DAV:   6    -0.419514504472E+03    0.20314E+02   -0.41032E+01  9720   0.103E+01    0.155E+01
DAV:   7    -0.417066590038E+03    0.24479E+01   -0.14612E+01 10280   0.640E+00    0.776E+00
DAV:   8    -0.416897758869E+03    0.16883E+00   -0.30778E+00  8512   0.321E+00    0.184E+00
DAV:   9    -0.416822259617E+03    0.75499E-01   -0.76617E-01  9424   0.178E+00    0.717E-01
DAV:  10    -0.416833745873E+03   -0.11486E-01   -0.10955E-01  8896   0.586E-01    0.464E-01
DAV:  11    -0.416833574612E+03    0.17126E-03   -0.14884E-02 10040   0.284E-01    0.195E-01
DAV:  12    -0.416834933464E+03   -0.13589E-02   -0.89941E-03  9760   0.152E-01    0.105E-01
DAV:  13    -0.416835085498E+03   -0.15203E-03   -0.13486E-03  8352   0.768E-02    0.730E-02
DAV:  14    -0.416835119125E+03   -0.33627E-04   -0.29228E-04  8616   0.294E-02    0.321E-02
DAV:  15    -0.416835164019E+03   -0.44894E-04   -0.14914E-04  8176   0.203E-02    0.119E-02
DAV:  16    -0.416835168017E+03   -0.39989E-05   -0.13486E-05 10896   0.686E-03    0.126E-02
DAV:  17    -0.416835167789E+03    0.22886E-06   -0.32312E-06  8368   0.321E-03    0.600E-03
DAV:  18    -0.416835167723E+03    0.65927E-07   -0.98055E-06 10416   0.496E-03    0.390E-03
DAV:  19    -0.416835167731E+03   -0.85565E-08   -0.94355E-07  8496   0.216E-03    0.270E-03
DAV:  20    -0.416835167719E+03    0.12496E-07   -0.49094E-07  9480   0.108E-03    0.499E-04
DAV:  21    -0.416835167765E+03   -0.46086E-07   -0.60955E-08  9096   0.489E-04    0.336E-04
DAV:  22    -0.416835167756E+03    0.91859E-08   -0.52445E-09  8552   0.193E-04    0.231E-04
DAV:  23    -0.416835167756E+03    0.58208E-10    0.12688E-09  8232   0.921E-05    0.197E-04
DAV:  24    -0.416835167752E+03    0.35398E-08    0.93981E-10  7568   0.689E-05    0.193E-04
DAV:  25    -0.416835167753E+03   -0.11387E-08    0.18271E-09  5672   0.434E-05    0.187E-04
DAV:  26    -0.416835167756E+03   -0.28376E-08    0.15712E-09  5336   0.371E-05    0.181E-04
DAV:  27    -0.416835167757E+03   -0.82582E-09    0.20603E-09  4304   0.230E-05    0.182E-04
DAV:  28    -0.416835167757E+03    0.17099E-09    0.16400E-09  4256   0.128E-05    0.182E-04
DAV:  29    -0.416835167756E+03    0.35288E-09    0.18661E-09  4256   0.124E-05    0.181E-04
DAV:  30    -0.416835167756E+03    0.39654E-09    0.16842E-09  4256   0.106E-05    0.181E-04
DAV:  31    -0.416835167756E+03   -0.21100E-09    0.10991E-09  4256   0.855E-06    0.181E-04
DAV:  32    -0.416835167756E+03    0.80036E-10    0.12217E-09  4256   0.451E-06    0.181E-04
DAV:  33    -0.416835167756E+03    0.47294E-10    0.11992E-09  4256   0.284E-06    0.181E-04
DAV:  34    -0.416835167756E+03    0.24374E-09    0.10992E-09  4216   0.223E-06    0.181E-04
DAV:  35    -0.416835167756E+03   -0.80036E-10    0.98827E-10  4144   0.257E-06
   1 F= -.41683517E+03 E0= -.41683517E+03  d E =-.221727-111
Application 22454128 resources: utime ~277885s, stime ~252s, Rss ~647976, inblocks ~886113, outblocks ~776320
