  96  96   0   0
  0.2080188E+02  0.1257760E-08  0.1245754E-08  0.1274818E-08  0.5000000E-15
  1.000000000000000E-004
  CAR 
 MAPbI3-Cubic                            
     10.63588757    -19.58838283  301      1.51823266      1.00000000
    -19.588  0.0000E+00  0.0000E+00
    -19.488  0.0000E+00  0.0000E+00
    -19.387  0.0000E+00  0.0000E+00
    -19.286  0.0000E+00  0.0000E+00
    -19.185  0.0000E+00  0.0000E+00
    -19.085  0.0000E+00  0.0000E+00
    -18.984  0.0000E+00  0.0000E+00
    -18.883  0.0000E+00  0.0000E+00
    -18.782  0.0000E+00  0.0000E+00
    -18.682  0.0000E+00  0.0000E+00
    -18.581  0.0000E+00  0.0000E+00
    -18.480  0.0000E+00  0.0000E+00
    -18.379  0.0000E+00  0.0000E+00
    -18.279  0.0000E+00  0.0000E+00
    -18.178  0.0000E+00  0.1600E+02
    -18.077  0.0000E+00  0.1600E+02
    -17.976  0.0000E+00  0.1600E+02
    -17.876  0.0000E+00  0.1600E+02
    -17.775  0.0000E+00  0.1600E+02
    -17.674  0.0000E+00  0.1600E+02
    -17.573  0.0000E+00  0.1600E+02
    -17.473  0.0000E+00  0.1600E+02
    -17.372  0.0000E+00  0.1600E+02
    -17.271  0.0000E+00  0.1600E+02
    -17.170  0.0000E+00  0.1600E+02
    -17.070  0.0000E+00  0.1600E+02
    -16.969  0.0000E+00  0.1600E+02
    -16.868  0.0000E+00  0.1600E+02
    -16.767  0.0000E+00  0.1600E+02
    -16.667  0.0000E+00  0.1600E+02
    -16.566  0.0000E+00  0.1600E+02
    -16.465  0.0000E+00  0.1600E+02
    -16.364  0.0000E+00  0.4800E+02
    -16.264  0.0000E+00  0.4800E+02
    -16.163  0.0000E+00  0.4800E+02
    -16.062  0.0000E+00  0.4800E+02
    -15.961  0.0000E+00  0.4800E+02
    -15.861  0.0000E+00  0.4800E+02
    -15.760  0.0000E+00  0.4800E+02
    -15.659  0.0000E+00  0.4800E+02
    -15.558  0.0000E+00  0.4800E+02
    -15.458  0.0000E+00  0.4800E+02
    -15.357  0.0000E+00  0.4800E+02
    -15.256  0.0000E+00  0.4800E+02
    -15.155  0.0000E+00  0.4800E+02
    -15.055  0.0000E+00  0.4800E+02
    -14.954  0.0000E+00  0.4800E+02
    -14.853  0.0000E+00  0.4800E+02
    -14.752  0.0000E+00  0.4800E+02
    -14.652  0.0000E+00  0.4800E+02
    -14.551  0.0000E+00  0.4800E+02
    -14.450  0.0000E+00  0.4800E+02
    -14.350  0.0000E+00  0.4800E+02
    -14.249  0.0000E+00  0.4800E+02
    -14.148  0.0000E+00  0.4800E+02
    -14.047  0.0000E+00  0.4800E+02
    -13.947  0.0000E+00  0.4800E+02
    -13.846  0.1585E+03  0.9597E+02
    -13.745  0.0000E+00  0.9600E+02
    -13.644  0.0000E+00  0.9600E+02
    -13.544  0.0000E+00  0.9600E+02
    -13.443  0.0000E+00  0.9600E+02
    -13.342  0.0000E+00  0.9600E+02
    -13.241  0.0000E+00  0.9600E+02
    -13.141  0.0000E+00  0.9600E+02
    -13.040  0.0000E+00  0.9600E+02
    -12.939  0.0000E+00  0.9600E+02
    -12.838  0.0000E+00  0.9600E+02
    -12.738  0.0000E+00  0.9600E+02
    -12.637  0.0000E+00  0.9600E+02
    -12.536  0.0000E+00  0.9600E+02
    -12.435  0.0000E+00  0.9600E+02
    -12.335  0.0000E+00  0.9600E+02
    -12.234  0.0000E+00  0.9600E+02
    -12.133  0.0000E+00  0.9600E+02
    -12.032  0.0000E+00  0.9600E+02
    -11.932  0.0000E+00  0.9600E+02
    -11.831  0.0000E+00  0.9600E+02
    -11.730  0.0000E+00  0.9600E+02
    -11.629  0.0000E+00  0.9600E+02
    -11.529  0.0000E+00  0.9600E+02
    -11.428  0.0000E+00  0.9600E+02
    -11.327  0.2457E+02  0.1032E+03
    -11.226  0.0000E+00  0.1120E+03
    -11.126  0.0000E+00  0.1120E+03
    -11.025  0.0000E+00  0.1120E+03
    -10.924  0.0000E+00  0.1120E+03
    -10.823  0.7352E+00  0.1121E+03
    -10.723  0.2941E+01  0.1137E+03
    -10.622  0.8088E+01  0.1184E+03
    -10.521  0.7307E+01  0.1256E+03
    -10.420  0.1564E+01  0.1288E+03
    -10.320  0.2234E+01  0.1345E+03
    -10.219  0.0000E+00  0.1400E+03
    -10.118  0.1847E+01  0.1442E+03
    -10.017  0.1208E+02  0.1541E+03
     -9.917  0.6139E-02  0.1596E+03
     -9.816  0.0000E+00  0.1600E+03
     -9.715  0.0000E+00  0.1600E+03
     -9.614  0.0000E+00  0.1600E+03
     -9.514  0.0000E+00  0.1600E+03
     -9.413  0.0000E+00  0.1600E+03
     -9.312  0.0000E+00  0.1600E+03
     -9.211  0.0000E+00  0.1600E+03
     -9.111  0.0000E+00  0.1600E+03
     -9.010  0.0000E+00  0.1600E+03
     -8.909  0.0000E+00  0.1600E+03
     -8.808  0.0000E+00  0.1600E+03
     -8.708  0.0000E+00  0.1600E+03
     -8.607  0.0000E+00  0.1600E+03
     -8.506  0.0000E+00  0.1600E+03
     -8.405  0.0000E+00  0.1600E+03
     -8.305  0.0000E+00  0.1600E+03
     -8.204  0.0000E+00  0.1600E+03
     -8.103  0.0000E+00  0.1600E+03
     -8.002  0.0000E+00  0.1600E+03
     -7.902  0.0000E+00  0.1600E+03
     -7.801  0.0000E+00  0.1600E+03
     -7.700  0.5245E+02  0.1680E+03
     -7.599  0.1151E-08  0.1853E+03
     -7.499  0.0000E+00  0.1920E+03
     -7.398  0.0000E+00  0.1920E+03
     -7.297  0.0000E+00  0.1920E+03
     -7.196  0.0000E+00  0.1920E+03
     -7.096  0.0000E+00  0.1920E+03
     -6.995  0.0000E+00  0.1920E+03
     -6.894  0.0000E+00  0.1921E+03
     -6.793  0.0000E+00  0.1925E+03
     -6.693  0.3697E+01  0.1931E+03
     -6.592  0.0000E+00  0.1934E+03
     -6.491  0.0000E+00  0.1944E+03
     -6.390  0.2941E+01  0.1964E+03
     -6.290  0.6486E+01  0.1984E+03
     -6.189  0.1599E+01  0.1994E+03
     -6.088  0.2941E+01  0.2015E+03
     -5.987  0.1715E-04  0.2034E+03
     -5.887  0.0000E+00  0.2054E+03
     -5.786  0.1470E+01  0.2133E+03
     -5.685  0.1469E+01  0.2224E+03
     -5.584  0.7352E+00  0.2235E+03
     -5.484  0.7364E+00  0.2236E+03
     -5.383  0.0000E+00  0.2239E+03
     -5.282  0.0000E+00  0.2240E+03
     -5.181  0.0000E+00  0.2240E+03
     -5.081  0.0000E+00  0.2240E+03
     -4.980  0.0000E+00  0.2240E+03
     -4.879  0.0000E+00  0.2240E+03
     -4.778  0.0000E+00  0.2240E+03
     -4.678  0.0000E+00  0.2240E+03
     -4.577  0.0000E+00  0.2240E+03
     -4.476  0.0000E+00  0.2240E+03
     -4.376  0.0000E+00  0.2240E+03
     -4.275  0.0000E+00  0.2240E+03
     -4.174  0.0000E+00  0.2240E+03
     -4.073  0.0000E+00  0.2240E+03
     -3.973  0.0000E+00  0.2240E+03
     -3.872  0.0000E+00  0.2240E+03
     -3.771  0.0000E+00  0.2240E+03
     -3.670  0.0000E+00  0.2240E+03
     -3.570  0.1889E+02  0.2306E+03
     -3.469  0.7352E+00  0.2560E+03
     -3.368  0.0000E+00  0.2560E+03
     -3.267  0.0000E+00  0.2560E+03
     -3.167  0.0000E+00  0.2560E+03
     -3.066  0.0000E+00  0.2560E+03
     -2.965  0.0000E+00  0.2560E+03
     -2.864  0.0000E+00  0.2560E+03
     -2.764  0.0000E+00  0.2560E+03
     -2.663  0.0000E+00  0.2560E+03
     -2.562  0.0000E+00  0.2560E+03
     -2.461  0.0000E+00  0.2560E+03
     -2.361  0.0000E+00  0.2560E+03
     -2.260  0.0000E+00  0.2560E+03
     -2.159  0.7352E+00  0.2567E+03
     -2.058  0.4412E+01  0.2596E+03
     -1.958  0.1402E+01  0.2622E+03
     -1.857  0.3676E+01  0.2650E+03
     -1.756  0.3690E+01  0.2680E+03
     -1.655  0.3702E+01  0.2724E+03
     -1.555  0.1470E+01  0.2754E+03
     -1.454  0.7352E+00  0.2789E+03
     -1.353  0.0000E+00  0.2798E+03
     -1.252  0.6814E+00  0.2807E+03
     -1.152  0.3749E+01  0.2841E+03
     -1.051  0.4190E+01  0.2867E+03
     -0.950  0.4404E+01  0.2927E+03
     -0.849  0.2237E+01  0.2967E+03
     -0.749  0.3680E+01  0.3009E+03
     -0.648  0.7351E+00  0.3025E+03
     -0.547  0.6200E+01  0.3076E+03
     -0.446  0.7921E+01  0.3132E+03
     -0.346  0.2940E+01  0.3189E+03
     -0.245  0.2206E+01  0.3224E+03
     -0.144  0.5670E+01  0.3283E+03
     -0.043  0.4341E+01  0.3360E+03
      0.057  0.1128E+02  0.3453E+03
      0.158  0.7513E+01  0.3512E+03
      0.259  0.6359E+01  0.3552E+03
      0.360  0.3317E+01  0.3600E+03
      0.460  0.5117E+01  0.3655E+03
      0.561  0.1037E+02  0.3719E+03
      0.662  0.5135E+01  0.3784E+03
      0.763  0.5019E+01  0.3860E+03
      0.863  0.7619E+00  0.3922E+03
      0.964  0.1470E+01  0.3957E+03
      1.065  0.1171E+01  0.3976E+03
      1.166  0.7352E+00  0.3989E+03
      1.266  0.0000E+00  0.3995E+03
      1.367  0.0000E+00  0.3999E+03
      1.468  0.0000E+00  0.3999E+03
      1.569  0.0000E+00  0.4000E+03
      1.669  0.0000E+00  0.4000E+03
      1.770  0.0000E+00  0.4000E+03
      1.871  0.0000E+00  0.4000E+03
      1.972  0.0000E+00  0.4000E+03
      2.072  0.0000E+00  0.4000E+03
      2.173  0.0000E+00  0.4001E+03
      2.274  0.0000E+00  0.4001E+03
      2.375  0.0000E+00  0.4002E+03
      2.475  0.0000E+00  0.4003E+03
      2.576  0.0000E+00  0.4004E+03
      2.677  0.1480E+01  0.4009E+03
      2.778  0.2206E+01  0.4013E+03
      2.878  0.2199E-02  0.4019E+03
      2.979  0.0000E+00  0.4022E+03
      3.080  0.7379E+00  0.4029E+03
      3.181  0.0000E+00  0.4039E+03
      3.281  0.1007E-05  0.4047E+03
      3.382  0.7351E+00  0.4057E+03
      3.483  0.2376E+00  0.4067E+03
      3.584  0.6889E+00  0.4084E+03
      3.684  0.2449E-15  0.4092E+03
      3.785  0.3886E-04  0.4097E+03
      3.886  0.7353E+00  0.4110E+03
      3.987  0.1470E+01  0.4123E+03
      4.087  0.2233E+01  0.4137E+03
      4.188  0.1335E-01  0.4150E+03
      4.289  0.2685E+01  0.4171E+03
      4.390  0.2941E+01  0.4190E+03
      4.490  0.3265E-15  0.4204E+03
      4.591  0.1423E+01  0.4216E+03
      4.692  0.0000E+00  0.4227E+03
      4.793  0.1470E+01  0.4236E+03
      4.893  0.0000E+00  0.4242E+03
      4.994  0.3076E-02  0.4249E+03
      5.095  0.1161E-09  0.4254E+03
      5.196  0.7352E+00  0.4266E+03
      5.296  0.1795E+01  0.4279E+03
      5.397  0.3709E+01  0.4298E+03
      5.498  0.2206E+01  0.4330E+03
      5.599  0.2797E+01  0.4364E+03
      5.699  0.2352E+01  0.4385E+03
      5.800  0.3676E+01  0.4409E+03
      5.901  0.1470E+01  0.4433E+03
      6.001  0.1285E+01  0.4461E+03
      6.102  0.3746E+01  0.4502E+03
      6.203  0.9336E+00  0.4548E+03
      6.304  0.2941E+01  0.4589E+03
      6.404  0.3494E+01  0.4632E+03
      6.505  0.5787E+01  0.4678E+03
      6.606  0.5274E+01  0.4732E+03
      6.707  0.2920E+01  0.4780E+03
      6.807  0.2084E+01  0.4815E+03
      6.908  0.2005E+01  0.4852E+03
      7.009  0.2280E+01  0.4892E+03
      7.110  0.3956E+01  0.4938E+03
      7.210  0.2943E+01  0.4984E+03
      7.311  0.5882E+01  0.5028E+03
      7.412  0.3212E+01  0.5077E+03
      7.513  0.4521E+01  0.5123E+03
      7.613  0.6487E+01  0.5175E+03
      7.714  0.2935E+01  0.5230E+03
      7.815  0.4952E+01  0.5278E+03
      7.916  0.4333E+01  0.5333E+03
      8.016  0.2955E+01  0.5387E+03
      8.117  0.4472E+01  0.5430E+03
      8.218  0.4030E+01  0.5481E+03
      8.319  0.7342E+01  0.5543E+03
      8.419  0.7685E+01  0.5606E+03
      8.520  0.4858E+01  0.5665E+03
      8.621  0.3675E+01  0.5719E+03
      8.722  0.4229E+01  0.5776E+03
      8.822  0.4296E+01  0.5830E+03
      8.923  0.5067E+01  0.5895E+03
      9.024  0.4568E+01  0.5945E+03
      9.125  0.1470E+01  0.5980E+03
      9.225  0.1079E+01  0.5998E+03
      9.326  0.0000E+00  0.6000E+03
      9.427  0.0000E+00  0.6000E+03
      9.528  0.0000E+00  0.6000E+03
      9.628  0.0000E+00  0.6000E+03
      9.729  0.0000E+00  0.6000E+03
      9.830  0.0000E+00  0.6000E+03
      9.931  0.0000E+00  0.6000E+03
     10.031  0.0000E+00  0.6000E+03
     10.132  0.0000E+00  0.6000E+03
     10.233  0.0000E+00  0.6000E+03
     10.334  0.0000E+00  0.6000E+03
     10.434  0.0000E+00  0.6000E+03
     10.535  0.0000E+00  0.6000E+03
     10.636  0.0000E+00  0.6000E+03
