 running on  192 total cores
 distrk:  each k-point on  192 cores,    1 groups
 distr:  one band on   24 cores,    8 groups
 using from now: INCAR     
 vasp.5.4.1 24Jun15 (build Nov 25 2015 16:39:35) complex                        
  
 POSCAR found type information on POSCAR  C  N  H  Pb I 
 POSCAR found :  5 types and      96 ions
 scaLAPACK will be used

 ----------------------------------------------------------------------------- 
|                                                                             |
|  ADVICE TO THIS USER RUNNING 'VASP/VAMP'   (HEAR YOUR MASTER'S VOICE ...):  |
|                                                                             |
|      You have a (more or less) 'large supercell' and for larger cells       |
|      it might be more efficient to use real space projection opertators     |
|      So try LREAL= Auto  in the INCAR   file.                               |
|      Mind: At the moment your POTCAR file does not contain real space       |
|       projectors, and has to be modified,  BUT if you                       |
|      want to do an extremely  accurate calculation you might also keep the  |
|      reciprocal projection scheme          (i.e. LREAL=.FALSE.)             |
|                                                                             |
 ----------------------------------------------------------------------------- 


 ----------------------------------------------------------------------------- 
|                                                                             |
|  ADVICE TO THIS USER RUNNING 'VASP/VAMP'   (HEAR YOUR MASTER'S VOICE ...):  |
|                                                                             |
|      You enforced a specific xc-type in the INCAR file,                     |
|      a different type was found on the POTCAR file                          |
|          I HOPE YOU KNOW, WHAT YOU ARE  DOING                               |
|                                                                             |
 ----------------------------------------------------------------------------- 

 LDA part: xc-table for Pade appr. of Perdew
 POSCAR, INCAR and KPOINTS ok, starting setup
 WARNING: small aliasing (wrap around) errors must be expected
 FFT: planning ...
 WAVECAR not read
 entering main loop
       N       E                     dE             d eps       ncg     rms          rms(c)
DAV:   1     0.422431355544E+04    0.42243E+04   -0.19292E+05 32544   0.146E+03
DAV:   2     0.842761950316E+03   -0.33816E+04   -0.31315E+04 35616   0.322E+02
DAV:   3     0.233754063439E+03   -0.60901E+03   -0.58886E+03 43936   0.157E+02
DAV:   4     0.188030818424E+03   -0.45723E+02   -0.44669E+02 44152   0.438E+01
DAV:   5     0.185823960480E+03   -0.22069E+01   -0.21957E+01 50392   0.992E+00    0.979E+01
DAV:   6     0.563463293773E+02   -0.12948E+03   -0.15314E+03 37176   0.504E+01    0.486E+01
DAV:   7    -0.938601063318E+02   -0.15021E+03   -0.16003E+02 39168   0.218E+01    0.283E+01
DAV:   8    -0.202255574325E+03   -0.10840E+03   -0.64497E+01 37256   0.130E+01    0.183E+01
DAV:   9    -0.333688760092E+03   -0.13143E+03   -0.12157E+02 36520   0.162E+01    0.910E+00
DAV:  10    -0.382536645747E+03   -0.48848E+02   -0.50729E+01 37408   0.104E+01    0.666E+00
DAV:  11    -0.410122113160E+03   -0.27585E+02   -0.37721E+01 38288   0.812E+00    0.385E+00
DAV:  12    -0.420912021610E+03   -0.10790E+02   -0.16177E+01 39832   0.545E+00    0.251E+00
DAV:  13    -0.422825317135E+03   -0.19133E+01   -0.27873E+00 40560   0.262E+00    0.207E+00
DAV:  14    -0.423425099533E+03   -0.59978E+00   -0.81336E-01 38976   0.132E+00    0.119E+00
DAV:  15    -0.423516341014E+03   -0.91241E-01   -0.21768E-01 40840   0.744E-01    0.658E-01
DAV:  16    -0.423525843658E+03   -0.95026E-02   -0.34910E-02 42080   0.347E-01    0.420E-01
DAV:  17    -0.423529197413E+03   -0.33538E-02   -0.10032E-02 39216   0.169E-01    0.237E-01
DAV:  18    -0.423531063667E+03   -0.18663E-02   -0.27825E-03 39696   0.928E-02    0.821E-02
DAV:  19    -0.423531582830E+03   -0.51916E-03   -0.73599E-04 40248   0.544E-02    0.464E-02
DAV:  20    -0.423531843835E+03   -0.26100E-03   -0.22490E-04 38208   0.280E-02    0.256E-02
DAV:  21    -0.423532009139E+03   -0.16530E-03   -0.15491E-04 36864   0.200E-02    0.160E-02
DAV:  22    -0.423532024585E+03   -0.15447E-04   -0.20258E-05 42984   0.865E-03    0.101E-02
DAV:  23    -0.423532027141E+03   -0.25559E-05   -0.82136E-06 37800   0.422E-03    0.424E-03
DAV:  24    -0.423532030656E+03   -0.35147E-05   -0.34111E-06 37288   0.323E-03    0.204E-03
DAV:  25    -0.423532030828E+03   -0.17244E-06   -0.76644E-07 39552   0.150E-03    0.110E-03
DAV:  26    -0.423532030822E+03    0.60027E-08   -0.12890E-07 41936   0.685E-04    0.901E-04
DAV:  27    -0.423532030767E+03    0.55359E-07   -0.26599E-08 35848   0.316E-04    0.354E-04
DAV:  28    -0.423532030690E+03    0.77060E-07   -0.22172E-08 31040   0.269E-04    0.227E-04
DAV:  29    -0.423532030675E+03    0.15119E-07   -0.39196E-09 28656   0.154E-04    0.151E-04
DAV:  30    -0.423532030685E+03   -0.10612E-07   -0.16667E-09 26712   0.146E-04    0.595E-05
DAV:  31    -0.423532030691E+03   -0.54497E-08   -0.58872E-10 23000   0.913E-05
   1 F= -.42353203E+03 E0= -.42353203E+03  d E =-.595846-149  mag=     0.0000     0.0000     0.0000
Application 22254255 resources: utime ~1745287s, stime ~2750s, Rss ~417084, inblocks ~2749678, outblocks ~4028810
