   8   8   1   0
  0.2002677E+02  0.5435300E-09  0.5435300E-09  0.6646963E-09  0.5000000E-15
  1.000000000000000E-004
  CAR 
 Name                                    
     17.21925600    -72.59644104  301      4.12113352      1.00000000
    -72.596  0.0000E+00  0.0000E+00
    -72.297  0.0000E+00  0.0000E+00
    -71.998  0.0000E+00  0.0000E+00
    -71.698  0.0000E+00  0.0000E+00
    -71.399  0.0000E+00  0.0000E+00
    -71.100  0.0000E+00  0.0000E+00
    -70.800  0.0000E+00  0.0000E+00
    -70.501  0.0000E+00  0.0000E+00
    -70.201  0.0000E+00  0.0000E+00
    -69.902  0.0000E+00  0.0000E+00
    -69.603  0.0000E+00  0.0000E+00
    -69.303  0.0000E+00  0.0000E+00
    -69.004  0.0000E+00  0.0000E+00
    -68.704  0.0000E+00  0.0000E+00
    -68.405  0.3340E+02  0.1200E+02
    -68.106  0.0000E+00  0.1200E+02
    -67.806  0.0000E+00  0.1200E+02
    -67.507  0.0000E+00  0.1200E+02
    -67.207  0.0000E+00  0.1200E+02
    -66.908  0.0000E+00  0.1200E+02
    -66.609  0.0000E+00  0.1200E+02
    -66.309  0.0000E+00  0.1200E+02
    -66.010  0.0000E+00  0.1200E+02
    -65.711  0.0000E+00  0.1200E+02
    -65.411  0.0000E+00  0.1200E+02
    -65.112  0.0000E+00  0.1200E+02
    -64.812  0.0000E+00  0.1200E+02
    -64.513  0.0000E+00  0.1200E+02
    -64.214  0.0000E+00  0.1200E+02
    -63.914  0.0000E+00  0.1200E+02
    -63.615  0.0000E+00  0.1200E+02
    -63.315  0.0000E+00  0.1200E+02
    -63.016  0.0000E+00  0.1200E+02
    -62.717  0.0000E+00  0.1200E+02
    -62.417  0.0000E+00  0.1200E+02
    -62.118  0.0000E+00  0.1200E+02
    -61.819  0.0000E+00  0.1200E+02
    -61.519  0.0000E+00  0.1200E+02
    -61.220  0.0000E+00  0.1200E+02
    -60.920  0.0000E+00  0.1200E+02
    -60.621  0.0000E+00  0.1200E+02
    -60.322  0.0000E+00  0.1200E+02
    -60.022  0.0000E+00  0.1200E+02
    -59.723  0.0000E+00  0.1200E+02
    -59.423  0.0000E+00  0.1200E+02
    -59.124  0.0000E+00  0.1200E+02
    -58.825  0.0000E+00  0.1200E+02
    -58.525  0.0000E+00  0.1200E+02
    -58.226  0.0000E+00  0.1200E+02
    -57.927  0.0000E+00  0.1200E+02
    -57.627  0.0000E+00  0.1200E+02
    -57.328  0.0000E+00  0.1200E+02
    -57.028  0.0000E+00  0.1200E+02
    -56.729  0.0000E+00  0.1200E+02
    -56.430  0.0000E+00  0.1200E+02
    -56.130  0.0000E+00  0.1200E+02
    -55.831  0.0000E+00  0.1200E+02
    -55.531  0.0000E+00  0.1200E+02
    -55.232  0.0000E+00  0.1200E+02
    -54.933  0.0000E+00  0.1200E+02
    -54.633  0.0000E+00  0.1200E+02
    -54.334  0.0000E+00  0.1200E+02
    -54.035  0.0000E+00  0.1200E+02
    -53.735  0.0000E+00  0.1200E+02
    -53.436  0.0000E+00  0.1200E+02
    -53.136  0.0000E+00  0.1200E+02
    -52.837  0.0000E+00  0.1200E+02
    -52.538  0.0000E+00  0.1200E+02
    -52.238  0.0000E+00  0.1200E+02
    -51.939  0.0000E+00  0.1200E+02
    -51.639  0.0000E+00  0.1200E+02
    -51.340  0.0000E+00  0.1200E+02
    -51.041  0.0000E+00  0.1200E+02
    -50.741  0.0000E+00  0.1200E+02
    -50.442  0.0000E+00  0.1200E+02
    -50.143  0.0000E+00  0.1200E+02
    -49.843  0.0000E+00  0.1200E+02
    -49.544  0.0000E+00  0.1200E+02
    -49.244  0.0000E+00  0.1200E+02
    -48.945  0.0000E+00  0.1200E+02
    -48.646  0.0000E+00  0.1200E+02
    -48.346  0.0000E+00  0.1200E+02
    -48.047  0.0000E+00  0.1200E+02
    -47.747  0.0000E+00  0.1200E+02
    -47.448  0.0000E+00  0.1200E+02
    -47.149  0.0000E+00  0.1200E+02
    -46.849  0.0000E+00  0.1200E+02
    -46.550  0.0000E+00  0.1200E+02
    -46.251  0.0000E+00  0.1200E+02
    -45.951  0.0000E+00  0.1200E+02
    -45.652  0.0000E+00  0.1200E+02
    -45.352  0.0000E+00  0.1200E+02
    -45.053  0.0000E+00  0.1200E+02
    -44.754  0.0000E+00  0.1200E+02
    -44.454  0.0000E+00  0.1200E+02
    -44.155  0.0000E+00  0.1200E+02
    -43.855  0.0000E+00  0.1200E+02
    -43.556  0.0000E+00  0.1200E+02
    -43.257  0.0000E+00  0.1200E+02
    -42.957  0.0000E+00  0.1200E+02
    -42.658  0.0000E+00  0.1200E+02
    -42.358  0.0000E+00  0.1200E+02
    -42.059  0.0000E+00  0.1200E+02
    -41.760  0.0000E+00  0.1200E+02
    -41.460  0.0000E+00  0.1200E+02
    -41.161  0.0000E+00  0.1200E+02
    -40.862  0.0000E+00  0.1200E+02
    -40.562  0.0000E+00  0.1200E+02
    -40.263  0.0000E+00  0.1200E+02
    -39.963  0.0000E+00  0.1200E+02
    -39.664  0.0000E+00  0.1200E+02
    -39.365  0.0000E+00  0.1200E+02
    -39.065  0.0000E+00  0.1200E+02
    -38.766  0.0000E+00  0.1200E+02
    -38.466  0.0000E+00  0.1200E+02
    -38.167  0.0000E+00  0.1200E+02
    -37.868  0.0000E+00  0.1200E+02
    -37.568  0.0000E+00  0.1200E+02
    -37.269  0.0000E+00  0.1200E+02
    -36.970  0.0000E+00  0.1200E+02
    -36.670  0.0000E+00  0.1200E+02
    -36.371  0.0000E+00  0.1200E+02
    -36.071  0.0000E+00  0.1200E+02
    -35.772  0.0000E+00  0.1200E+02
    -35.473  0.0000E+00  0.1200E+02
    -35.173  0.0000E+00  0.1200E+02
    -34.874  0.0000E+00  0.1200E+02
    -34.574  0.0000E+00  0.1200E+02
    -34.275  0.0000E+00  0.1200E+02
    -33.976  0.0000E+00  0.1200E+02
    -33.676  0.0000E+00  0.1200E+02
    -33.377  0.0000E+00  0.1200E+02
    -33.078  0.0000E+00  0.1200E+02
    -32.778  0.0000E+00  0.1200E+02
    -32.479  0.0000E+00  0.1200E+02
    -32.179  0.0000E+00  0.1200E+02
    -31.880  0.0000E+00  0.1200E+02
    -31.581  0.0000E+00  0.1200E+02
    -31.281  0.0000E+00  0.1200E+02
    -30.982  0.0000E+00  0.1200E+02
    -30.682  0.0000E+00  0.1200E+02
    -30.383  0.0000E+00  0.1200E+02
    -30.084  0.0000E+00  0.1200E+02
    -29.784  0.0000E+00  0.1200E+02
    -29.485  0.0000E+00  0.1200E+02
    -29.186  0.0000E+00  0.1200E+02
    -28.886  0.0000E+00  0.1200E+02
    -28.587  0.0000E+00  0.1200E+02
    -28.287  0.0000E+00  0.1200E+02
    -27.988  0.0000E+00  0.1200E+02
    -27.689  0.0000E+00  0.1200E+02
    -27.389  0.0000E+00  0.1200E+02
    -27.090  0.0000E+00  0.1200E+02
    -26.790  0.0000E+00  0.1200E+02
    -26.491  0.0000E+00  0.1200E+02
    -26.192  0.0000E+00  0.1200E+02
    -25.892  0.0000E+00  0.1200E+02
    -25.593  0.0000E+00  0.1200E+02
    -25.294  0.0000E+00  0.1200E+02
    -24.994  0.0000E+00  0.1200E+02
    -24.695  0.0000E+00  0.1200E+02
    -24.395  0.0000E+00  0.1200E+02
    -24.096  0.0000E+00  0.1200E+02
    -23.797  0.0000E+00  0.1200E+02
    -23.497  0.0000E+00  0.1200E+02
    -23.198  0.0000E+00  0.1200E+02
    -22.898  0.0000E+00  0.1200E+02
    -22.599  0.0000E+00  0.1200E+02
    -22.300  0.0000E+00  0.1200E+02
    -22.000  0.0000E+00  0.1200E+02
    -21.701  0.0000E+00  0.1200E+02
    -21.401  0.0000E+00  0.1200E+02
    -21.102  0.0000E+00  0.1200E+02
    -20.803  0.0000E+00  0.1200E+02
    -20.503  0.0000E+00  0.1200E+02
    -20.204  0.2861E-08  0.1200E+02
    -19.905  0.0000E+00  0.2200E+02
    -19.605  0.0000E+00  0.2200E+02
    -19.306  0.0000E+00  0.2200E+02
    -19.006  0.0000E+00  0.2200E+02
    -18.707  0.0000E+00  0.2200E+02
    -18.408  0.0000E+00  0.2200E+02
    -18.108  0.0000E+00  0.2200E+02
    -17.809  0.0000E+00  0.2200E+02
    -17.509  0.0000E+00  0.2200E+02
    -17.210  0.0000E+00  0.2200E+02
    -16.911  0.0000E+00  0.2200E+02
    -16.611  0.0000E+00  0.2200E+02
    -16.312  0.0000E+00  0.2200E+02
    -16.013  0.0000E+00  0.2200E+02
    -15.713  0.0000E+00  0.2200E+02
    -15.414  0.0000E+00  0.2200E+02
    -15.114  0.0000E+00  0.2200E+02
    -14.815  0.0000E+00  0.2200E+02
    -14.516  0.0000E+00  0.2200E+02
    -14.216  0.0000E+00  0.2200E+02
    -13.917  0.0000E+00  0.2200E+02
    -13.617  0.0000E+00  0.2200E+02
    -13.318  0.0000E+00  0.2200E+02
    -13.019  0.0000E+00  0.2200E+02
    -12.719  0.0000E+00  0.2200E+02
    -12.420  0.0000E+00  0.2200E+02
    -12.121  0.0000E+00  0.2200E+02
    -11.821  0.0000E+00  0.2200E+02
    -11.522  0.4637E+00  0.2221E+02
    -11.222  0.5720E+00  0.2274E+02
    -10.923  0.9648E+00  0.2396E+02
    -10.624  0.5060E+00  0.2417E+02
    -10.324  0.3161E+01  0.2671E+02
    -10.025  0.2273E+01  0.3000E+02
     -9.725  0.0000E+00  0.3000E+02
     -9.426  0.0000E+00  0.3000E+02
     -9.127  0.0000E+00  0.3000E+02
     -8.827  0.0000E+00  0.3000E+02
     -8.528  0.0000E+00  0.3000E+02
     -8.229  0.0000E+00  0.3000E+02
     -7.929  0.0000E+00  0.3000E+02
     -7.630  0.0000E+00  0.3000E+02
     -7.330  0.0000E+00  0.3000E+02
     -7.031  0.0000E+00  0.3000E+02
     -6.732  0.0000E+00  0.3000E+02
     -6.432  0.0000E+00  0.3000E+02
     -6.133  0.0000E+00  0.3000E+02
     -5.833  0.0000E+00  0.3000E+02
     -5.534  0.0000E+00  0.3000E+02
     -5.235  0.0000E+00  0.3000E+02
     -4.935  0.1196E+01  0.3037E+02
     -4.636  0.7008E+01  0.3408E+02
     -4.337  0.0000E+00  0.4000E+02
     -4.037  0.8676E+00  0.4038E+02
     -3.738  0.1295E+01  0.4185E+02
     -3.438  0.0000E+00  0.4200E+02
     -3.139  0.0000E+00  0.4200E+02
     -2.840  0.0000E+00  0.4200E+02
     -2.540  0.2575E-15  0.4203E+02
     -2.241  0.3747E+00  0.4250E+02
     -1.941  0.1761E+01  0.4410E+02
     -1.642  0.9980E+00  0.4488E+02
     -1.343  0.8022E+00  0.4610E+02
     -1.043  0.1452E+01  0.4777E+02
     -0.744  0.1480E+01  0.4910E+02
     -0.444  0.2065E+01  0.5091E+02
     -0.145  0.2556E+01  0.5371E+02
      0.154  0.1167E+01  0.5785E+02
      0.454  0.2043E+01  0.6038E+02
      0.753  0.2153E+01  0.6384E+02
      1.052  0.0000E+00  0.6400E+02
      1.352  0.5736E-01  0.6402E+02
      1.651  0.6326E+01  0.6787E+02
      1.951  0.2710E+01  0.7199E+02
      2.250  0.2427E+01  0.7387E+02
      2.549  0.2448E+01  0.7675E+02
      2.849  0.2147E+01  0.7905E+02
      3.148  0.1789E+01  0.8077E+02
      3.448  0.1135E+01  0.8260E+02
      3.747  0.4639E+00  0.8379E+02
      4.046  0.4639E-01  0.8400E+02
      4.346  0.0000E+00  0.8400E+02
      4.645  0.0000E+00  0.8400E+02
      4.944  0.0000E+00  0.8400E+02
      5.244  0.0000E+00  0.8400E+02
      5.543  0.0000E+00  0.8401E+02
      5.843  0.2158E-01  0.8402E+02
      6.142  0.3786E+00  0.8421E+02
      6.441  0.3334E+00  0.8489E+02
      6.741  0.3710E+00  0.8589E+02
      7.040  0.8960E-01  0.8603E+02
      7.340  0.0000E+00  0.8612E+02
      7.639  0.5605E+00  0.8667E+02
      7.938  0.1318E+01  0.8748E+02
      8.238  0.2068E+01  0.8886E+02
      8.537  0.1933E+01  0.9043E+02
      8.836  0.1275E+01  0.9167E+02
      9.136  0.9821E+00  0.9256E+02
      9.435  0.5425E+00  0.9354E+02
      9.735  0.3045E+00  0.9424E+02
     10.034  0.1270E+01  0.9551E+02
     10.333  0.1361E+01  0.9674E+02
     10.633  0.1127E+01  0.9795E+02
     10.932  0.1867E+01  0.9949E+02
     11.232  0.1457E+01  0.1010E+03
     11.531  0.7699E+00  0.1022E+03
     11.830  0.6411E+00  0.1030E+03
     12.130  0.5960E+00  0.1037E+03
     12.429  0.9278E-01  0.1040E+03
     12.728  0.0000E+00  0.1040E+03
     13.028  0.0000E+00  0.1040E+03
     13.327  0.0000E+00  0.1040E+03
     13.627  0.0000E+00  0.1040E+03
     13.926  0.0000E+00  0.1040E+03
     14.225  0.0000E+00  0.1040E+03
     14.525  0.0000E+00  0.1040E+03
     14.824  0.0000E+00  0.1040E+03
     15.124  0.0000E+00  0.1040E+03
     15.423  0.0000E+00  0.1040E+03
     15.722  0.0000E+00  0.1040E+03
     16.022  0.0000E+00  0.1040E+03
     16.321  0.0000E+00  0.1040E+03
     16.620  0.0000E+00  0.1040E+03
     16.920  0.0000E+00  0.1040E+03
     17.219  0.0000E+00  0.1040E+03
     17.21925600    -72.59644104  301      4.12113352      1.00000000
    -72.596  0.0000E+00  0.0000E+00  0.0000E+00
    -72.297  0.0000E+00  0.0000E+00  0.0000E+00
    -71.998  0.0000E+00  0.0000E+00  0.0000E+00
    -71.698  0.0000E+00  0.0000E+00  0.0000E+00
    -71.399  0.0000E+00  0.0000E+00  0.0000E+00
    -71.100  0.0000E+00  0.0000E+00  0.0000E+00
    -70.800  0.0000E+00  0.0000E+00  0.0000E+00
    -70.501  0.0000E+00  0.0000E+00  0.0000E+00
    -70.201  0.0000E+00  0.0000E+00  0.0000E+00
    -69.902  0.0000E+00  0.0000E+00  0.0000E+00
    -69.603  0.0000E+00  0.0000E+00  0.0000E+00
    -69.303  0.0000E+00  0.0000E+00  0.0000E+00
    -69.004  0.0000E+00  0.0000E+00  0.0000E+00
    -68.704  0.0000E+00  0.0000E+00  0.0000E+00
    -68.405  0.4060E-08  0.1999E+02  0.2652E-05
    -68.106  0.0000E+00  0.0000E+00  0.0000E+00
    -67.806  0.0000E+00  0.0000E+00  0.0000E+00
    -67.507  0.0000E+00  0.0000E+00  0.0000E+00
    -67.207  0.0000E+00  0.0000E+00  0.0000E+00
    -66.908  0.0000E+00  0.0000E+00  0.0000E+00
    -66.609  0.0000E+00  0.0000E+00  0.0000E+00
    -66.309  0.0000E+00  0.0000E+00  0.0000E+00
    -66.010  0.0000E+00  0.0000E+00  0.0000E+00
    -65.711  0.0000E+00  0.0000E+00  0.0000E+00
    -65.411  0.0000E+00  0.0000E+00  0.0000E+00
    -65.112  0.0000E+00  0.0000E+00  0.0000E+00
    -64.812  0.0000E+00  0.0000E+00  0.0000E+00
    -64.513  0.0000E+00  0.0000E+00  0.0000E+00
    -64.214  0.0000E+00  0.0000E+00  0.0000E+00
    -63.914  0.0000E+00  0.0000E+00  0.0000E+00
    -63.615  0.0000E+00  0.0000E+00  0.0000E+00
    -63.315  0.0000E+00  0.0000E+00  0.0000E+00
    -63.016  0.0000E+00  0.0000E+00  0.0000E+00
    -62.717  0.0000E+00  0.0000E+00  0.0000E+00
    -62.417  0.0000E+00  0.0000E+00  0.0000E+00
    -62.118  0.0000E+00  0.0000E+00  0.0000E+00
    -61.819  0.0000E+00  0.0000E+00  0.0000E+00
    -61.519  0.0000E+00  0.0000E+00  0.0000E+00
    -61.220  0.0000E+00  0.0000E+00  0.0000E+00
    -60.920  0.0000E+00  0.0000E+00  0.0000E+00
    -60.621  0.0000E+00  0.0000E+00  0.0000E+00
    -60.322  0.0000E+00  0.0000E+00  0.0000E+00
    -60.022  0.0000E+00  0.0000E+00  0.0000E+00
    -59.723  0.0000E+00  0.0000E+00  0.0000E+00
    -59.423  0.0000E+00  0.0000E+00  0.0000E+00
    -59.124  0.0000E+00  0.0000E+00  0.0000E+00
    -58.825  0.0000E+00  0.0000E+00  0.0000E+00
    -58.525  0.0000E+00  0.0000E+00  0.0000E+00
    -58.226  0.0000E+00  0.0000E+00  0.0000E+00
    -57.927  0.0000E+00  0.0000E+00  0.0000E+00
    -57.627  0.0000E+00  0.0000E+00  0.0000E+00
    -57.328  0.0000E+00  0.0000E+00  0.0000E+00
    -57.028  0.0000E+00  0.0000E+00  0.0000E+00
    -56.729  0.0000E+00  0.0000E+00  0.0000E+00
    -56.430  0.0000E+00  0.0000E+00  0.0000E+00
    -56.130  0.0000E+00  0.0000E+00  0.0000E+00
    -55.831  0.0000E+00  0.0000E+00  0.0000E+00
    -55.531  0.0000E+00  0.0000E+00  0.0000E+00
    -55.232  0.0000E+00  0.0000E+00  0.0000E+00
    -54.933  0.0000E+00  0.0000E+00  0.0000E+00
    -54.633  0.0000E+00  0.0000E+00  0.0000E+00
    -54.334  0.0000E+00  0.0000E+00  0.0000E+00
    -54.035  0.0000E+00  0.0000E+00  0.0000E+00
    -53.735  0.0000E+00  0.0000E+00  0.0000E+00
    -53.436  0.0000E+00  0.0000E+00  0.0000E+00
    -53.136  0.0000E+00  0.0000E+00  0.0000E+00
    -52.837  0.0000E+00  0.0000E+00  0.0000E+00
    -52.538  0.0000E+00  0.0000E+00  0.0000E+00
    -52.238  0.0000E+00  0.0000E+00  0.0000E+00
    -51.939  0.0000E+00  0.0000E+00  0.0000E+00
    -51.639  0.0000E+00  0.0000E+00  0.0000E+00
    -51.340  0.0000E+00  0.0000E+00  0.0000E+00
    -51.041  0.0000E+00  0.0000E+00  0.0000E+00
    -50.741  0.0000E+00  0.0000E+00  0.0000E+00
    -50.442  0.0000E+00  0.0000E+00  0.0000E+00
    -50.143  0.0000E+00  0.0000E+00  0.0000E+00
    -49.843  0.0000E+00  0.0000E+00  0.0000E+00
    -49.544  0.0000E+00  0.0000E+00  0.0000E+00
    -49.244  0.0000E+00  0.0000E+00  0.0000E+00
    -48.945  0.0000E+00  0.0000E+00  0.0000E+00
    -48.646  0.0000E+00  0.0000E+00  0.0000E+00
    -48.346  0.0000E+00  0.0000E+00  0.0000E+00
    -48.047  0.0000E+00  0.0000E+00  0.0000E+00
    -47.747  0.0000E+00  0.0000E+00  0.0000E+00
    -47.448  0.0000E+00  0.0000E+00  0.0000E+00
    -47.149  0.0000E+00  0.0000E+00  0.0000E+00
    -46.849  0.0000E+00  0.0000E+00  0.0000E+00
    -46.550  0.0000E+00  0.0000E+00  0.0000E+00
    -46.251  0.0000E+00  0.0000E+00  0.0000E+00
    -45.951  0.0000E+00  0.0000E+00  0.0000E+00
    -45.652  0.0000E+00  0.0000E+00  0.0000E+00
    -45.352  0.0000E+00  0.0000E+00  0.0000E+00
    -45.053  0.0000E+00  0.0000E+00  0.0000E+00
    -44.754  0.0000E+00  0.0000E+00  0.0000E+00
    -44.454  0.0000E+00  0.0000E+00  0.0000E+00
    -44.155  0.0000E+00  0.0000E+00  0.0000E+00
    -43.855  0.0000E+00  0.0000E+00  0.0000E+00
    -43.556  0.0000E+00  0.0000E+00  0.0000E+00
    -43.257  0.0000E+00  0.0000E+00  0.0000E+00
    -42.957  0.0000E+00  0.0000E+00  0.0000E+00
    -42.658  0.0000E+00  0.0000E+00  0.0000E+00
    -42.358  0.0000E+00  0.0000E+00  0.0000E+00
    -42.059  0.0000E+00  0.0000E+00  0.0000E+00
    -41.760  0.0000E+00  0.0000E+00  0.0000E+00
    -41.460  0.0000E+00  0.0000E+00  0.0000E+00
    -41.161  0.0000E+00  0.0000E+00  0.0000E+00
    -40.862  0.0000E+00  0.0000E+00  0.0000E+00
    -40.562  0.0000E+00  0.0000E+00  0.0000E+00
    -40.263  0.0000E+00  0.0000E+00  0.0000E+00
    -39.963  0.0000E+00  0.0000E+00  0.0000E+00
    -39.664  0.0000E+00  0.0000E+00  0.0000E+00
    -39.365  0.0000E+00  0.0000E+00  0.0000E+00
    -39.065  0.0000E+00  0.0000E+00  0.0000E+00
    -38.766  0.0000E+00  0.0000E+00  0.0000E+00
    -38.466  0.0000E+00  0.0000E+00  0.0000E+00
    -38.167  0.0000E+00  0.0000E+00  0.0000E+00
    -37.868  0.0000E+00  0.0000E+00  0.0000E+00
    -37.568  0.0000E+00  0.0000E+00  0.0000E+00
    -37.269  0.0000E+00  0.0000E+00  0.0000E+00
    -36.970  0.0000E+00  0.0000E+00  0.0000E+00
    -36.670  0.0000E+00  0.0000E+00  0.0000E+00
    -36.371  0.0000E+00  0.0000E+00  0.0000E+00
    -36.071  0.0000E+00  0.0000E+00  0.0000E+00
    -35.772  0.0000E+00  0.0000E+00  0.0000E+00
    -35.473  0.0000E+00  0.0000E+00  0.0000E+00
    -35.173  0.0000E+00  0.0000E+00  0.0000E+00
    -34.874  0.0000E+00  0.0000E+00  0.0000E+00
    -34.574  0.0000E+00  0.0000E+00  0.0000E+00
    -34.275  0.0000E+00  0.0000E+00  0.0000E+00
    -33.976  0.0000E+00  0.0000E+00  0.0000E+00
    -33.676  0.0000E+00  0.0000E+00  0.0000E+00
    -33.377  0.0000E+00  0.0000E+00  0.0000E+00
    -33.078  0.0000E+00  0.0000E+00  0.0000E+00
    -32.778  0.0000E+00  0.0000E+00  0.0000E+00
    -32.479  0.0000E+00  0.0000E+00  0.0000E+00
    -32.179  0.0000E+00  0.0000E+00  0.0000E+00
    -31.880  0.0000E+00  0.0000E+00  0.0000E+00
    -31.581  0.0000E+00  0.0000E+00  0.0000E+00
    -31.281  0.0000E+00  0.0000E+00  0.0000E+00
    -30.982  0.0000E+00  0.0000E+00  0.0000E+00
    -30.682  0.0000E+00  0.0000E+00  0.0000E+00
    -30.383  0.0000E+00  0.0000E+00  0.0000E+00
    -30.084  0.0000E+00  0.0000E+00  0.0000E+00
    -29.784  0.0000E+00  0.0000E+00  0.0000E+00
    -29.485  0.0000E+00  0.0000E+00  0.0000E+00
    -29.186  0.0000E+00  0.0000E+00  0.0000E+00
    -28.886  0.0000E+00  0.0000E+00  0.0000E+00
    -28.587  0.0000E+00  0.0000E+00  0.0000E+00
    -28.287  0.0000E+00  0.0000E+00  0.0000E+00
    -27.988  0.0000E+00  0.0000E+00  0.0000E+00
    -27.689  0.0000E+00  0.0000E+00  0.0000E+00
    -27.389  0.0000E+00  0.0000E+00  0.0000E+00
    -27.090  0.0000E+00  0.0000E+00  0.0000E+00
    -26.790  0.0000E+00  0.0000E+00  0.0000E+00
    -26.491  0.0000E+00  0.0000E+00  0.0000E+00
    -26.192  0.0000E+00  0.0000E+00  0.0000E+00
    -25.892  0.0000E+00  0.0000E+00  0.0000E+00
    -25.593  0.0000E+00  0.0000E+00  0.0000E+00
    -25.294  0.0000E+00  0.0000E+00  0.0000E+00
    -24.994  0.0000E+00  0.0000E+00  0.0000E+00
    -24.695  0.0000E+00  0.0000E+00  0.0000E+00
    -24.395  0.0000E+00  0.0000E+00  0.0000E+00
    -24.096  0.0000E+00  0.0000E+00  0.0000E+00
    -23.797  0.0000E+00  0.0000E+00  0.0000E+00
    -23.497  0.0000E+00  0.0000E+00  0.0000E+00
    -23.198  0.0000E+00  0.0000E+00  0.0000E+00
    -22.898  0.0000E+00  0.0000E+00  0.0000E+00
    -22.599  0.0000E+00  0.0000E+00  0.0000E+00
    -22.300  0.0000E+00  0.0000E+00  0.0000E+00
    -22.000  0.0000E+00  0.0000E+00  0.0000E+00
    -21.701  0.0000E+00  0.0000E+00  0.0000E+00
    -21.401  0.0000E+00  0.0000E+00  0.0000E+00
    -21.102  0.0000E+00  0.0000E+00  0.0000E+00
    -20.803  0.0000E+00  0.0000E+00  0.0000E+00
    -20.503  0.0000E+00  0.0000E+00  0.0000E+00
    -20.204  0.2562E-14  0.2858E-14  0.3295E-14
    -19.905  0.0000E+00  0.0000E+00  0.0000E+00
    -19.605  0.0000E+00  0.0000E+00  0.0000E+00
    -19.306  0.0000E+00  0.0000E+00  0.0000E+00
    -19.006  0.0000E+00  0.0000E+00  0.0000E+00
    -18.707  0.0000E+00  0.0000E+00  0.0000E+00
    -18.408  0.0000E+00  0.0000E+00  0.0000E+00
    -18.108  0.0000E+00  0.0000E+00  0.0000E+00
    -17.809  0.0000E+00  0.0000E+00  0.0000E+00
    -17.509  0.0000E+00  0.0000E+00  0.0000E+00
    -17.210  0.0000E+00  0.0000E+00  0.0000E+00
    -16.911  0.0000E+00  0.0000E+00  0.0000E+00
    -16.611  0.0000E+00  0.0000E+00  0.0000E+00
    -16.312  0.0000E+00  0.0000E+00  0.0000E+00
    -16.013  0.0000E+00  0.0000E+00  0.0000E+00
    -15.713  0.0000E+00  0.0000E+00  0.0000E+00
    -15.414  0.0000E+00  0.0000E+00  0.0000E+00
    -15.114  0.0000E+00  0.0000E+00  0.0000E+00
    -14.815  0.0000E+00  0.0000E+00  0.0000E+00
    -14.516  0.0000E+00  0.0000E+00  0.0000E+00
    -14.216  0.0000E+00  0.0000E+00  0.0000E+00
    -13.917  0.0000E+00  0.0000E+00  0.0000E+00
    -13.617  0.0000E+00  0.0000E+00  0.0000E+00
    -13.318  0.0000E+00  0.0000E+00  0.0000E+00
    -13.019  0.0000E+00  0.0000E+00  0.0000E+00
    -12.719  0.0000E+00  0.0000E+00  0.0000E+00
    -12.420  0.0000E+00  0.0000E+00  0.0000E+00
    -12.121  0.0000E+00  0.0000E+00  0.0000E+00
    -11.821  0.0000E+00  0.0000E+00  0.0000E+00
    -11.522  0.3195E-02  0.1664E-03  0.1664E-03
    -11.222  0.2348E-02  0.6454E-03  0.7348E-03
    -10.923  0.1013E-02  0.1838E-02  0.2409E-02
    -10.624  0.3718E-02  0.4688E-03  0.5773E-03
    -10.324  0.1158E-01  0.5689E-02  0.8344E-02
    -10.025  0.3651E-03  0.6240E-02  0.9393E-02
     -9.725  0.0000E+00  0.0000E+00  0.0000E+00
     -9.426  0.0000E+00  0.0000E+00  0.0000E+00
     -9.127  0.0000E+00  0.0000E+00  0.0000E+00
     -8.827  0.0000E+00  0.0000E+00  0.0000E+00
     -8.528  0.0000E+00  0.0000E+00  0.0000E+00
     -8.229  0.0000E+00  0.0000E+00  0.0000E+00
     -7.929  0.0000E+00  0.0000E+00  0.0000E+00
     -7.630  0.0000E+00  0.0000E+00  0.0000E+00
     -7.330  0.0000E+00  0.0000E+00  0.0000E+00
     -7.031  0.0000E+00  0.0000E+00  0.0000E+00
     -6.732  0.0000E+00  0.0000E+00  0.0000E+00
     -6.432  0.0000E+00  0.0000E+00  0.0000E+00
     -6.133  0.0000E+00  0.0000E+00  0.0000E+00
     -5.833  0.0000E+00  0.0000E+00  0.0000E+00
     -5.534  0.0000E+00  0.0000E+00  0.0000E+00
     -5.235  0.0000E+00  0.0000E+00  0.0000E+00
     -4.935  0.2989E-03  0.1769E-03  0.2616E-02
     -4.636  0.5794E-02  0.9585E-03  0.3052E-02
     -4.337  0.0000E+00  0.0000E+00  0.0000E+00
     -4.037  0.2359E-02  0.1870E-02  0.3963E-02
     -3.738  0.2515E-02  0.1930E-02  0.1312E-01
     -3.438  0.0000E+00  0.0000E+00  0.0000E+00
     -3.139  0.0000E+00  0.0000E+00  0.0000E+00
     -2.840  0.0000E+00  0.0000E+00  0.0000E+00
     -2.540  0.3110E-17  0.8282E-18  0.1696E-17
     -2.241  0.8025E-03  0.1436E-02  0.5246E-02
     -1.941  0.1780E-01  0.1774E-02  0.4369E-01
     -1.642  0.2620E-01  0.2132E-02  0.1968E-01
     -1.343  0.2179E-01  0.1029E-02  0.2624E-01
     -1.043  0.2194E-01  0.3473E-02  0.6348E-01
     -0.744  0.1136E-01  0.6739E-02  0.1073E+00
     -0.444  0.6820E-02  0.1157E-01  0.1965E+00
     -0.145  0.1681E-01  0.1161E-01  0.3514E+00
      0.154  0.3340E-02  0.3410E-02  0.1392E+00
      0.454  0.4081E-02  0.6111E-02  0.4241E+00
      0.753  0.2549E-02  0.3779E-02  0.2868E+00
      1.052  0.0000E+00  0.0000E+00  0.0000E+00
      1.352  0.1425E-04  0.5777E-05  0.1649E-01
      1.651  0.3641E-02  0.2767E-02  0.2589E+01
      1.951  0.1893E-02  0.3108E-02  0.1057E+01
      2.250  0.2015E-02  0.8615E-02  0.8543E+00
      2.549  0.2497E-02  0.1290E-01  0.6914E+00
      2.849  0.3326E-02  0.1271E-01  0.5718E+00
      3.148  0.2612E-02  0.1371E-01  0.4526E+00
      3.448  0.3875E-03  0.9512E-02  0.2660E+00
      3.747  0.3357E-04  0.2622E-02  0.9934E-01
      4.046  0.2838E-09  0.1876E-03  0.9723E-02
      4.346  0.0000E+00  0.0000E+00  0.0000E+00
      4.645  0.0000E+00  0.0000E+00  0.0000E+00
      4.944  0.0000E+00  0.0000E+00  0.0000E+00
      5.244  0.0000E+00  0.0000E+00  0.0000E+00
      5.543  0.0000E+00  0.0000E+00  0.0000E+00
      5.843  0.1836E-10  0.5309E-04  0.3580E-03
      6.142  0.1788E-02  0.5031E-03  0.5319E-02
      6.441  0.8796E-03  0.7137E-03  0.6892E-02
      6.741  0.4807E-03  0.8502E-03  0.9970E-02
      7.040  0.2680E-08  0.6330E-03  0.3432E-02
      7.340  0.0000E+00  0.0000E+00  0.0000E+00
      7.639  0.1126E-02  0.5054E-02  0.1450E-01
      7.938  0.1856E-01  0.7432E-02  0.1451E-01
      8.238  0.1502E-01  0.1320E-01  0.3226E-01
      8.537  0.1965E-01  0.5627E-02  0.2902E-01
      8.836  0.1957E-01  0.5253E-02  0.1790E-01
      9.136  0.7345E-02  0.2223E-02  0.1076E-01
      9.435  0.7116E-02  0.2157E-02  0.6210E-02
      9.735  0.8310E-02  0.1343E-02  0.1523E-02
     10.034  0.2520E-01  0.1116E-01  0.1386E-01
     10.333  0.4653E-01  0.1166E-01  0.1509E-01
     10.633  0.1864E-01  0.1655E-01  0.9888E-02
     10.932  0.3221E-01  0.2210E-01  0.2412E-01
     11.232  0.1564E-01  0.2621E-01  0.1479E-01
     11.531  0.2281E-01  0.1090E-01  0.5680E-02
     11.830  0.2109E-01  0.1105E-01  0.4685E-02
     12.130  0.3659E-02  0.1356E-01  0.4064E-02
     12.429  0.1033E-02  0.1784E-02  0.9824E-03
     12.728  0.0000E+00  0.0000E+00  0.0000E+00
     13.028  0.0000E+00  0.0000E+00  0.0000E+00
     13.327  0.0000E+00  0.0000E+00  0.0000E+00
     13.627  0.0000E+00  0.0000E+00  0.0000E+00
     13.926  0.0000E+00  0.0000E+00  0.0000E+00
     14.225  0.0000E+00  0.0000E+00  0.0000E+00
     14.525  0.0000E+00  0.0000E+00  0.0000E+00
     14.824  0.0000E+00  0.0000E+00  0.0000E+00
     15.124  0.0000E+00  0.0000E+00  0.0000E+00
     15.423  0.0000E+00  0.0000E+00  0.0000E+00
     15.722  0.0000E+00  0.0000E+00  0.0000E+00
     16.022  0.0000E+00  0.0000E+00  0.0000E+00
     16.321  0.0000E+00  0.0000E+00  0.0000E+00
     16.620  0.0000E+00  0.0000E+00  0.0000E+00
     16.920  0.0000E+00  0.0000E+00  0.0000E+00
     17.219  0.0000E+00  0.0000E+00  0.0000E+00
     17.21925600    -72.59644104  301      4.12113352      1.00000000
    -72.596  0.0000E+00  0.0000E+00  0.0000E+00
    -72.297  0.0000E+00  0.0000E+00  0.0000E+00
    -71.998  0.0000E+00  0.0000E+00  0.0000E+00
    -71.698  0.0000E+00  0.0000E+00  0.0000E+00
    -71.399  0.0000E+00  0.0000E+00  0.0000E+00
    -71.100  0.0000E+00  0.0000E+00  0.0000E+00
    -70.800  0.0000E+00  0.0000E+00  0.0000E+00
    -70.501  0.0000E+00  0.0000E+00  0.0000E+00
    -70.201  0.0000E+00  0.0000E+00  0.0000E+00
    -69.902  0.0000E+00  0.0000E+00  0.0000E+00
    -69.603  0.0000E+00  0.0000E+00  0.0000E+00
    -69.303  0.0000E+00  0.0000E+00  0.0000E+00
    -69.004  0.0000E+00  0.0000E+00  0.0000E+00
    -68.704  0.0000E+00  0.0000E+00  0.0000E+00
    -68.405  0.4205E-08  0.1333E+02  0.1464E-05
    -68.106  0.0000E+00  0.0000E+00  0.0000E+00
    -67.806  0.0000E+00  0.0000E+00  0.0000E+00
    -67.507  0.0000E+00  0.0000E+00  0.0000E+00
    -67.207  0.0000E+00  0.0000E+00  0.0000E+00
    -66.908  0.0000E+00  0.0000E+00  0.0000E+00
    -66.609  0.0000E+00  0.0000E+00  0.0000E+00
    -66.309  0.0000E+00  0.0000E+00  0.0000E+00
    -66.010  0.0000E+00  0.0000E+00  0.0000E+00
    -65.711  0.0000E+00  0.0000E+00  0.0000E+00
    -65.411  0.0000E+00  0.0000E+00  0.0000E+00
    -65.112  0.0000E+00  0.0000E+00  0.0000E+00
    -64.812  0.0000E+00  0.0000E+00  0.0000E+00
    -64.513  0.0000E+00  0.0000E+00  0.0000E+00
    -64.214  0.0000E+00  0.0000E+00  0.0000E+00
    -63.914  0.0000E+00  0.0000E+00  0.0000E+00
    -63.615  0.0000E+00  0.0000E+00  0.0000E+00
    -63.315  0.0000E+00  0.0000E+00  0.0000E+00
    -63.016  0.0000E+00  0.0000E+00  0.0000E+00
    -62.717  0.0000E+00  0.0000E+00  0.0000E+00
    -62.417  0.0000E+00  0.0000E+00  0.0000E+00
    -62.118  0.0000E+00  0.0000E+00  0.0000E+00
    -61.819  0.0000E+00  0.0000E+00  0.0000E+00
    -61.519  0.0000E+00  0.0000E+00  0.0000E+00
    -61.220  0.0000E+00  0.0000E+00  0.0000E+00
    -60.920  0.0000E+00  0.0000E+00  0.0000E+00
    -60.621  0.0000E+00  0.0000E+00  0.0000E+00
    -60.322  0.0000E+00  0.0000E+00  0.0000E+00
    -60.022  0.0000E+00  0.0000E+00  0.0000E+00
    -59.723  0.0000E+00  0.0000E+00  0.0000E+00
    -59.423  0.0000E+00  0.0000E+00  0.0000E+00
    -59.124  0.0000E+00  0.0000E+00  0.0000E+00
    -58.825  0.0000E+00  0.0000E+00  0.0000E+00
    -58.525  0.0000E+00  0.0000E+00  0.0000E+00
    -58.226  0.0000E+00  0.0000E+00  0.0000E+00
    -57.927  0.0000E+00  0.0000E+00  0.0000E+00
    -57.627  0.0000E+00  0.0000E+00  0.0000E+00
    -57.328  0.0000E+00  0.0000E+00  0.0000E+00
    -57.028  0.0000E+00  0.0000E+00  0.0000E+00
    -56.729  0.0000E+00  0.0000E+00  0.0000E+00
    -56.430  0.0000E+00  0.0000E+00  0.0000E+00
    -56.130  0.0000E+00  0.0000E+00  0.0000E+00
    -55.831  0.0000E+00  0.0000E+00  0.0000E+00
    -55.531  0.0000E+00  0.0000E+00  0.0000E+00
    -55.232  0.0000E+00  0.0000E+00  0.0000E+00
    -54.933  0.0000E+00  0.0000E+00  0.0000E+00
    -54.633  0.0000E+00  0.0000E+00  0.0000E+00
    -54.334  0.0000E+00  0.0000E+00  0.0000E+00
    -54.035  0.0000E+00  0.0000E+00  0.0000E+00
    -53.735  0.0000E+00  0.0000E+00  0.0000E+00
    -53.436  0.0000E+00  0.0000E+00  0.0000E+00
    -53.136  0.0000E+00  0.0000E+00  0.0000E+00
    -52.837  0.0000E+00  0.0000E+00  0.0000E+00
    -52.538  0.0000E+00  0.0000E+00  0.0000E+00
    -52.238  0.0000E+00  0.0000E+00  0.0000E+00
    -51.939  0.0000E+00  0.0000E+00  0.0000E+00
    -51.639  0.0000E+00  0.0000E+00  0.0000E+00
    -51.340  0.0000E+00  0.0000E+00  0.0000E+00
    -51.041  0.0000E+00  0.0000E+00  0.0000E+00
    -50.741  0.0000E+00  0.0000E+00  0.0000E+00
    -50.442  0.0000E+00  0.0000E+00  0.0000E+00
    -50.143  0.0000E+00  0.0000E+00  0.0000E+00
    -49.843  0.0000E+00  0.0000E+00  0.0000E+00
    -49.544  0.0000E+00  0.0000E+00  0.0000E+00
    -49.244  0.0000E+00  0.0000E+00  0.0000E+00
    -48.945  0.0000E+00  0.0000E+00  0.0000E+00
    -48.646  0.0000E+00  0.0000E+00  0.0000E+00
    -48.346  0.0000E+00  0.0000E+00  0.0000E+00
    -48.047  0.0000E+00  0.0000E+00  0.0000E+00
    -47.747  0.0000E+00  0.0000E+00  0.0000E+00
    -47.448  0.0000E+00  0.0000E+00  0.0000E+00
    -47.149  0.0000E+00  0.0000E+00  0.0000E+00
    -46.849  0.0000E+00  0.0000E+00  0.0000E+00
    -46.550  0.0000E+00  0.0000E+00  0.0000E+00
    -46.251  0.0000E+00  0.0000E+00  0.0000E+00
    -45.951  0.0000E+00  0.0000E+00  0.0000E+00