       N       E                     dE             d eps       ncg     rms          ort
DAV:   1     0.488823756425E+04    0.48882E+04   -0.15811E+05  2652   0.707E+03
DAV:   2     0.132596626060E+04   -0.35623E+04   -0.34839E+04  2652   0.213E+03
DAV:   3     0.382555347400E+03   -0.94341E+03   -0.91638E+03  2652   0.502E+02
DAV:   4     0.209000571618E+03   -0.17355E+03   -0.16416E+03  2652   0.205E+02
DAV:   5     0.188957006854E+03   -0.20044E+02   -0.19107E+02  2652   0.652E+01
SDA:   6     0.185133342295E+03   -0.38237E+01   -0.19107E+02  2652   0.485E+04 0.000E+00
CGA:   7     0.770286294744E+01   -0.17743E+03   -0.47028E+03  2652   0.398E+03-0.903E+03
CGA:   8    -0.314960215240E+02   -0.39199E+02   -0.35748E+02  2652   0.224E+02 0.182E+02
CGA:   9    -0.348141411526E+02   -0.33181E+01   -0.32786E+01  2652   0.125E+02-0.173E+00
CGA:  10    -0.372961963533E+02   -0.24821E+01   -0.24673E+01  2652   0.433E+01 0.692E+00
CGA:  11    -0.379845063178E+02   -0.68831E+00   -0.69684E+00  2652   0.131E+01 0.549E-01
CGA:  12    -0.383480631880E+02   -0.36356E+00   -0.36265E+00  2652   0.780E+00 0.792E-02
CGA:  13    -0.385045078020E+02   -0.15644E+00   -0.15644E+00  2652   0.208E+00 0.124E-03
CGA:  14    -0.385519696852E+02   -0.47462E-01   -0.47446E-01  2652   0.990E-01 0.116E-03
CGA:  15    -0.385751084417E+02   -0.23139E-01   -0.23190E-01  2652   0.311E-01-0.126E-02
CGA:  16    -0.385820618714E+02   -0.69534E-02   -0.69583E-02  2652   0.101E-01-0.162E-03
CGA:  17    -0.385847039807E+02   -0.26421E-02   -0.26430E-02  2652   0.358E-02-0.133E-04
CGA:  18    -0.385857422317E+02   -0.10383E-02   -0.10646E-02  2652   0.139E-02-0.270E-03
CGA:  19    -0.385861239385E+02   -0.38171E-03   -0.41242E-03  2652   0.570E-03-0.267E-03
CGA:  20    -0.385862494263E+02   -0.12549E-03   -0.13934E-03  2652   0.333E-03-0.151E-03
CGA:  21    -0.385862949626E+02   -0.45536E-04   -0.44605E-04  2652   0.979E-04-0.277E-04
CGA:  22    -0.385863136001E+02   -0.18638E-04   -0.18691E-04  2652   0.293E-04 0.962E-05
CGA:  23    -0.385863177259E+02   -0.41257E-05   -0.49043E-05  2652   0.132E-04 0.127E-04
CGA:  24    -0.385863187484E+02   -0.10225E-05   -0.21270E-05  2652   0.727E-05 0.113E-04
CGA:  25    -0.385863191451E+02   -0.39669E-06   -0.84432E-06  2652   0.411E-05 0.501E-05
   1 F= -.38586319E+02 E0= -.38586319E+02  d E =-.969035-223
