PROCAR new format
# of k-points:   51         # of bands:  52         # of ions:   8

 k-point    1 :    0.00000000 0.00000000 0.00000000     weight = 0.00694444

band   1 # energy  -68.51375580 # occ.  2.00000000
 
ion      s      p      d    tot
  1  0.000  0.000  0.000  0.000
  2  0.000  0.998  0.000  0.998
  3  0.000  0.000  0.000  0.000
  4  0.000  0.000  0.000  0.000
  5  0.000  0.000  0.000  0.000
  6  0.000  0.000  0.000  0.000
  7  0.000  0.000  0.000  0.000
  8  0.000  0.000  0.000  0.000
tot  0.000  0.998  0.000  0.998
 
band   2 # energy  -68.48050038 # occ.  2.00000000
 
ion      s      p      d    tot
  1  0.000  0.997  0.000  0.997
  2  0.000  0.000  0.000  0.000
  3  0.000  0.000  0.000  0.000
  4  0.000  0.000  0.000  0.000
  5  0.000  0.000  0.000  0.000
  6  0.000  0.000  0.000  0.000
  7  0.000  0.000  0.000  0.000
  8  0.000  0.000  0.000  0.000
tot  0.000  0.998  0.000  0.998
 
band   3 # energy  -68.48050032 # occ.  2.00000000
 
ion      s      p      d    tot
  1  0.000  0.997  0.000  0.997
  2  0.000  0.000  0.000  0.000
  3  0.000  0.000  0.000  0.000
  4  0.000  0.000  0.000  0.000
  5  0.000  0.000  0.000  0.000
  6  0.000  0.000  0.000  0.000
  7  0.000  0.000  0.000  0.000
  8  0.000  0.000  0.000  0.000
tot  0.000  0.998  0.000  0.998
 
band   4 # energy  -68.46132802 # occ.  2.00000000
 
ion      s      p      d    tot
  1  0.000  0.997  0.000  0.997
  2  0.000  0.000  0.000  0.000
  3  0.000  0.000  0.000  0.000
  4  0.000  0.000  0.000  0.000
  5  0.000  0.000  0.000  0.000
  6  0.000  0.000  0.000  0.000
  7  0.000  0.000  0.000  0.000
  8  0.000  0.000  0.000  0.000
tot  0.000  0.998  0.000  0.998
 
band   5 # energy  -68.45799974 # occ.  2.00000000
 
ion      s      p      d    tot
  1  0.000  0.000  0.000  0.000
  2  0.000  0.997  0.000  0.997
  3  0.000  0.000  0.000  0.000
  4  0.000  0.000  0.000  0.000
  5  0.000  0.000  0.000  0.000
  6  0.000  0.000  0.000  0.000
  7  0.000  0.000  0.000  0.000
  8  0.000  0.000  0.000  0.000
tot  0.000  0.998  0.000  0.998
 
band   6 # energy  -68.45800032 # occ.  2.00000000
 
ion      s      p      d    tot
  1  0.000  0.000  0.000  0.000
  2  0.000  0.997  0.000  0.997
  3  0.000  0.000  0.000  0.000
  4  0.000  0.000  0.000  0.000
  5  0.000  0.000  0.000  0.000
  6  0.000  0.000  0.000  0.000
  7  0.000  0.000  0.000  0.000
  8  0.000  0.000  0.000  0.000
tot  0.000  0.998  0.000  0.998
 
band   7 # energy  -20.15988228 # occ.  2.00000000
 
ion      s      p      d    tot
  1  0.000  0.000  0.000  0.000
  2  0.000  0.000  0.000  0.000
  3  0.000  0.000  0.000  0.000
  4  0.000  0.000  0.984  0.985
  5  0.001  0.000  0.000  0.001
  6  0.001  0.000  0.000  0.001
  7  0.001  0.000  0.000  0.001
  8  0.001  0.000  0.000  0.001
tot  0.003  0.002  0.984  0.989
 
band   8 # energy  -20.15595863 # occ.  2.00000000
 
ion      s      p      d    tot
  1  0.000  0.000  0.000  0.000
  2  0.000  0.000  0.000  0.000
  3  0.000  0.000  0.000  0.000
  4  0.000  0.000  0.984  0.985
  5  0.001  0.001  0.000  0.002
  6  0.001  0.001  0.000  0.002
  7  0.000  0.000  0.000  0.000
  8  0.000  0.000  0.000  0.000
tot  0.003  0.002  0.984  0.989
 
band   9 # energy  -20.15595658 # occ.  2.00000000
 
ion      s      p      d    tot
  1  0.000  0.000  0.000  0.000
  2  0.000  0.000  0.000  0.000
  3  0.000  0.000  0.000  0.000
  4  0.000  0.000  0.984  0.985
  5  0.000  0.000  0.000  0.000
  6  0.000  0.000  0.000  0.000
  7  0.001  0.001  0.000  0.002
  8  0.001  0.001  0.000  0.002
tot  0.003  0.002  0.984  0.989
 
band  10 # energy  -20.06232531 # occ.  2.00000000
 
ion      s      p      d    tot
  1  0.000  0.000  0.000  0.000
  2  0.000  0.000  0.000  0.000
  3  0.000  0.000  0.000  0.000
  4  0.000  0.000  0.991  0.991
  5  0.000  0.000  0.000  0.000
  6  0.000  0.000  0.000  0.000
  7  0.000  0.000  0.000  0.000
  8  0.000  0.000  0.000  0.000
tot  0.000  0.000  0.991  0.991
 
band  11 # energy  -20.05692684 # occ.  2.00000000
 
ion      s      p      d    tot
  1  0.000  0.000  0.000  0.000
  2  0.000  0.000  0.000  0.000
  3  0.000  0.000  0.000  0.000
  4  0.000  0.000  0.991  0.991
  5  0.000  0.000  0.000  0.000
  6  0.000  0.000  0.000  0.000
  7  0.000  0.000  0.000  0.000
  8  0.000  0.000  0.000  0.000
tot  0.000  0.000  0.991  0.991
 
band  12 # energy  -11.72121700 # occ.  2.00000000
 
ion      s      p      d    tot
  1  0.008  0.000  0.000  0.008
  2  0.008  0.000  0.000  0.008
  3  0.022  0.000  0.000  0.022
  4  0.087  0.000  0.000  0.087
  5  0.130  0.001  0.000  0.130
  6  0.130  0.001  0.000  0.130
  7  0.130  0.001  0.000  0.130
  8  0.130  0.001  0.000  0.130
tot  0.644  0.003  0.000  0.646
 
band  13 # energy  -10.07676149 # occ.  2.00000000
 
ion      s      p      d    tot
  1  0.000  0.003  0.004  0.007
  2  0.000  0.003  0.004  0.007
  3  0.000  0.009  0.017  0.025
  4  0.000  0.022  0.010  0.032
  5  0.161  0.000  0.000  0.162
  6  0.162  0.000  0.000  0.162
  7  0.162  0.000  0.000  0.162
  8  0.162  0.000  0.000  0.162
tot  0.647  0.037  0.034  0.718
 
band  14 # energy  -10.06636638 # occ.  2.00000000
 
ion      s      p      d    tot
  1  0.000  0.003  0.004  0.007
  2  0.000  0.003  0.004  0.007
  3  0.000  0.009  0.017  0.025
  4  0.000  0.022  0.010  0.032
  5  0.224  0.000  0.000  0.224
  6  0.224  0.000  0.000  0.224
  7  0.100  0.000  0.000  0.100
  8  0.100  0.000  0.000  0.100
tot  0.648  0.036  0.036  0.720
 
band  15 # energy  -10.06636618 # occ.  2.00000000
 
ion      s      p      d    tot
  1  0.000  0.003  0.004  0.007
  2  0.000  0.003  0.004  0.007
  3  0.000  0.009  0.017  0.025
  4  0.000  0.022  0.010  0.032
  5  0.100  0.000  0.000  0.100
  6  0.100  0.000  0.000  0.100
  7  0.224  0.000  0.000  0.224
  8  0.224  0.000  0.000  0.224
tot  0.648  0.036  0.036  0.720
 
band  16 # energy   -4.71323764 # occ.  2.00000000
 
ion      s      p      d    tot
  1  0.004  0.000  0.001  0.006
  2  0.000  0.000  0.002  0.003
  3  0.010  0.000  0.605  0.616
  4  0.132  0.000  0.000  0.132
  5  0.003  0.020  0.000  0.023
  6  0.003  0.020  0.000  0.023
  7  0.003  0.020  0.000  0.023
  8  0.003  0.020  0.000  0.023
tot  0.160  0.080  0.609  0.848
 
band  17 # energy   -4.64318882 # occ.  2.00000000
 
ion      s      p      d    tot
  1  0.000  0.000  0.000  0.000
  2  0.000  0.000  0.001  0.001
  3  0.000  0.000  0.916  0.916
  4  0.000  0.004  0.001  0.005
  5  0.002  0.006  0.000  0.007
  6  0.002  0.006  0.000  0.007
  7  0.002  0.006  0.000  0.007
  8  0.002  0.006  0.000  0.007
tot  0.007  0.027  0.918  0.952
 
band  18 # energy   -4.59770495 # occ.  2.00000000
 
ion      s      p      d    tot
  1  0.000  0.000  0.001  0.002
  2  0.000  0.000  0.001  0.001
  3  0.000  0.000  0.924  0.925
  4  0.000  0.002  0.001  0.002
  5  0.004  0.009  0.000  0.014
  6  0.004  0.009  0.000  0.014
  7  0.000  0.001  0.000  0.001
  8  0.000  0.001  0.000  0.001
tot  0.009  0.022  0.927  0.959
 
band  19 # energy   -4.59770357 # occ.  2.00000000
 
ion      s      p      d    tot
  1  0.000  0.000  0.001  0.002
  2  0.000  0.000  0.001  0.001
  3  0.000  0.000  0.924  0.925
  4  0.000  0.002  0.001  0.002
  5  0.000  0.001  0.000  0.001
  6  0.000  0.001  0.000  0.001
  7  0.004  0.009  0.000  0.014
  8  0.004  0.009  0.000  0.014
tot  0.009  0.022  0.927  0.959
 
band  20 # energy   -4.59059381 # occ.  2.00000000
 
ion      s      p      d    tot
  1  0.000  0.000  0.000  0.000
  2  0.000  0.000  0.000  0.001
  3  0.000  0.000  0.937  0.937
  4  0.000  0.001  0.000  0.001
  5  0.000  0.003  0.000  0.003
  6  0.000  0.003  0.000  0.003
  7  0.000  0.003  0.000  0.003
  8  0.000  0.003  0.000  0.003
tot  0.001  0.013  0.938  0.952
 
band  21 # energy   -4.24218611 # occ.  2.00000000
 
ion      s      p      d    tot
  1  0.003  0.000  0.001  0.004
  2  0.005  0.000  0.003  0.008
  3  0.023  0.000  0.345  0.367
  4  0.272  0.000  0.000  0.272
  5  0.006  0.030  0.000  0.037
  6  0.006  0.030  0.000  0.037
  7  0.006  0.030  0.000  0.037
  8  0.006  0.030  0.000  0.037
tot  0.328  0.121  0.349  0.798
 
band  22 # energy   -1.86031299 # occ.  2.00000000
 
ion      s      p      d    tot
  1  0.009  0.000  0.020  0.029
  2  0.037  0.000  0.000  0.037
  3  0.150  0.000  0.001  0.151
  4  0.013  0.000  0.003  0.016
  5  0.002  0.078  0.000  0.080
  6  0.002  0.078  0.000  0.080
  7  0.002  0.078  0.000  0.080
  8  0.002  0.078  0.000  0.080
tot  0.216  0.311  0.024  0.551
 
band  23 # energy   -1.23003943 # occ.  2.00000000
 
ion      s      p      d    tot
  1  0.000  0.000  0.069  0.069
  2  0.000  0.011  0.034  0.045
  3  0.000  0.000  0.041  0.041
  4  0.000  0.106  0.004  0.110
  5  0.001  0.079  0.000  0.080
  6  0.001  0.079  0.000  0.080
  7  0.001  0.079  0.000  0.080
  8  0.001  0.079  0.000  0.080
tot  0.003  0.432  0.147  0.583
 
band  24 # energy   -1.18063589 # occ.  2.00000000
 
ion      s      p      d    tot
  1  0.072  0.000  0.002  0.073
  2  0.040  0.000  0.003  0.043
  3  0.015  0.000  0.025  0.040
  4  0.001  0.000  0.004  0.005
  5  0.000  0.086  0.000  0.086
  6  0.000  0.086  0.000  0.086
  7  0.000  0.086  0.000  0.086
  8  0.000  0.086  0.000  0.086
tot  0.128  0.344  0.033  0.506
 
band  25 # energy   -0.74501779 # occ.  2.00000000
 
ion      s      p      d    tot
  1  0.000  0.012  0.089  0.101
  2  0.000  0.001  0.096  0.096
  3  0.000  0.031  0.008  0.040
  4  0.000  0.000  0.009  0.009
  5  0.000  0.080  0.000  0.080
  6  0.000  0.080  0.000  0.080
  7  0.000  0.080  0.000  0.080
  8  0.000  0.080  0.000  0.080
tot  0.000  0.365  0.202  0.567
 
band  26 # energy   -0.61564165 # occ.  2.00000000
 
ion      s      p      d    tot
  1  0.000  0.008  0.018  0.026
  2  0.000  0.000  0.012  0.012
  3  0.000  0.023  0.002  0.025
  4  0.000  0.152  0.005  0.157
  5  0.001  0.140  0.000  0.142
  6  0.001  0.140  0.000  0.142
  7  0.000  0.039  0.000  0.039
  8  0.000  0.039  0.000  0.039
tot  0.003  0.542  0.038  0.583
 
band  27 # energy   -0.61564179 # occ.  2.00000000
 
ion      s      p      d    tot
  1  0.000  0.008  0.018  0.026
  2  0.000  0.000  0.012  0.012
  3  0.000  0.023  0.002  0.025
  4  0.000  0.152  0.005  0.157
  5  0.000  0.039  0.000  0.039
  6  0.000  0.039  0.000  0.039
  7  0.001  0.140  0.000  0.142
  8  0.001  0.140  0.000  0.142
tot  0.003  0.542  0.038  0.583
 
band  28 # energy   -0.00302809 # occ.  2.00000000
 
ion      s      p      d    tot
  1  0.000  0.007  0.101  0.108
  2  0.000  0.011  0.248  0.259
  3  0.000  0.005  0.000  0.006
  4  0.000  0.004  0.002  0.006
  5  0.000  0.085  0.000  0.085
  6  0.000  0.085  0.000  0.085
  7  0.000  0.071  0.000  0.071
  8  0.000  0.071  0.000  0.071
tot  0.000  0.339  0.352  0.691
 
band  29 # energy   -0.00302656 # occ.  2.00000000
 
ion      s      p      d    tot
  1  0.000  0.007  0.101  0.108
  2  0.000  0.011  0.248  0.259
  3  0.000  0.005  0.000  0.006
  4  0.000  0.004  0.002  0.006
  5  0.000  0.071  0.000  0.071
  6  0.000  0.071  0.000  0.071
  7  0.000  0.085  0.000  0.085
  8  0.000  0.085  0.000  0.085
tot  0.000  0.339  0.352  0.691
 
band  30 # energy    0.34500896 # occ.  2.00000000
 
ion      s      p      d    tot
  1  0.000  0.000  0.211  0.211
  2  0.000  0.001  0.276  0.277
  3  0.000  0.010  0.026  0.036
  4  0.000  0.007  0.008  0.015
  5  0.000  0.055  0.000  0.055
  6  0.000  0.055  0.000  0.055
  7  0.000  0.055  0.000  0.055
  8  0.000  0.055  0.000  0.055
tot  0.001  0.238  0.521  0.760
 
band  31 # energy    0.38038156 # occ.  2.00000000
 
ion      s      p      d    tot
  1  0.000  0.002  0.257  0.259
  2  0.000  0.004  0.090  0.095
  3  0.000  0.032  0.027  0.058
  4  0.000  0.001  0.004  0.004
  5  0.000  0.095  0.000  0.096
  6  0.000  0.095  0.000  0.096
  7  0.000  0.042  0.000  0.042
  8  0.000  0.042  0.000  0.042
tot  0.001  0.314  0.378  0.693
 
band  32 # energy    0.38038275 # occ.  2.00000000
 
ion      s      p      d    tot
  1  0.000  0.002  0.257  0.259
  2  0.000  0.004  0.090  0.095
  3  0.000  0.032  0.027  0.058
  4  0.000  0.001  0.004  0.004
  5  0.000  0.042  0.000  0.042
  6  0.000  0.042  0.000  0.042
  7  0.000  0.095  0.000  0.096
  8  0.000  0.095  0.000  0.096
tot  0.001  0.314  0.378  0.693
 
band  33 # energy    1.40949054 # occ.  2.00000000
 
ion      s      p      d    tot
  1  0.000  0.000  0.449  0.449
  2  0.000  0.000  0.415  0.415
  3  0.000  0.001  0.000  0.002
  4  0.000  0.005  0.000  0.005
  5  0.000  0.000  0.000  0.000
  6  0.000  0.000  0.000  0.000
  7  0.000  0.000  0.000  0.000
  8  0.000  0.000  0.000  0.000
tot  0.001  0.008  0.864  0.872
 
band  34 # energy    1.47442754 # occ.  2.00000000
 
ion      s      p      d    tot
  1  0.001  0.000  0.053  0.054
  2  0.002  0.000  0.793  0.795
  3  0.005  0.000  0.000  0.005
  4  0.026  0.000  0.000  0.026
  5  0.001  0.002  0.000  0.003
  6  0.001  0.002  0.000  0.003
  7  0.001  0.002  0.000  0.003
  8  0.001  0.002  0.000  0.003
tot  0.036  0.008  0.846  0.890
 
band  35 # energy    1.62720161 # occ.  2.00000000
 
ion      s      p      d    tot
  1  0.000  0.000  0.818  0.818
  2  0.003  0.000  0.070  0.073
  3  0.011  0.000  0.000  0.011
  4  0.000  0.000  0.000  0.001
  5  0.000  0.001  0.000  0.001
  6  0.000  0.001  0.000  0.001
  7  0.000  0.001  0.000  0.001
  8  0.000  0.001  0.000  0.001
tot  0.015  0.005  0.888  0.907
 
band  36 # energy    1.95485091 # occ.  2.00000000
 
ion      s      p      d    tot
  1  0.000  0.000  0.529  0.529
  2  0.000  0.002  0.292  0.294
  3  0.000  0.006  0.004  0.010
  4  0.000  0.016  0.002  0.019
  5  0.000  0.013  0.000  0.013
  6  0.000  0.013  0.000  0.013
  7  0.000  0.013  0.000  0.013
  8  0.000  0.013  0.000  0.013
tot  0.001  0.076  0.828  0.905
 
band  37 # energy    2.01556068 # occ.  2.00000000
 
ion      s      p      d    tot
  1  0.000  0.006  0.330  0.336
  2  0.000  0.007  0.365  0.371
  3  0.000  0.002  0.002  0.004
  4  0.000  0.002  0.001  0.003
  5  0.002  0.013  0.000  0.015
  6  0.002  0.013  0.000  0.015
  7  0.000  0.028  0.000  0.028
  8  0.000  0.028  0.000  0.029
tot  0.005  0.100  0.698  0.802
 
band  38 # energy    2.01556294 # occ.  2.00000000
 
ion      s      p      d    tot
  1  0.000  0.006  0.330  0.336
  2  0.000  0.007  0.365  0.371
  3  0.000  0.002  0.002  0.004
  4  0.000  0.002  0.001  0.003
  5  0.000  0.028  0.000  0.029
  6  0.000  0.028  0.000  0.029
  7  0.002  0.013  0.000  0.015
  8  0.002  0.013  0.000  0.015
tot  0.005  0.100  0.698  0.802
 
band  39 # energy    2.17330159 # occ.  2.00000000
 
ion      s      p      d    tot
  1  0.000  0.005  0.255  0.261
  2  0.000  0.003  0.502  0.505
  3  0.000  0.006  0.004  0.010
  4  0.000  0.002  0.003  0.005
  5  0.000  0.017  0.000  0.017
  6  0.000  0.017  0.000  0.017
  7  0.000  0.017  0.000  0.017
  8  0.000  0.017  0.000  0.017
tot  0.002  0.085  0.765  0.851
 
band  40 # energy    3.91398474 # occ.  2.00000000
 
ion      s      p      d    tot
  1  0.000  0.004  0.201  0.205
  2  0.000  0.004  0.192  0.196
  3  0.000  0.004  0.019  0.022
  4  0.000  0.002  0.017  0.019
  5  0.000  0.089  0.000  0.089
  6  0.000  0.089  0.000  0.089
  7  0.002  0.080  0.000  0.081
  8  0.002  0.080  0.000  0.081
tot  0.004  0.351  0.428  0.783
 
band  41 # energy    3.91398780 # occ.  2.00000000
 
ion      s      p      d    tot
  1  0.000  0.004  0.201  0.205
  2  0.000  0.004  0.192  0.196
  3  0.000  0.004  0.019  0.022
  4  0.000  0.002  0.017  0.019
  5  0.002  0.080  0.000  0.081
  6  0.002  0.080  0.000  0.081
  7  0.000  0.089  0.000  0.089
  8  0.000  0.089  0.000  0.089
tot  0.004  0.351  0.428  0.783
 
band  42 # energy    3.97279481 # occ.  2.00000000
 
ion      s      p      d    tot
  1  0.000  0.004  0.210  0.214
  2  0.000  0.005  0.202  0.207
  3  0.000  0.002  0.016  0.019
  4  0.000  0.003  0.014  0.017
  5  0.000  0.083  0.000  0.083
  6  0.000  0.083  0.000  0.083
  7  0.000  0.083  0.000  0.083
  8  0.000  0.083  0.000  0.083
tot  0.001  0.346  0.443  0.789
 
band  43 # energy    5.37298812 # occ.  0.00000000
 
ion      s      p      d    tot
  1  0.017  0.000  0.004  0.021
  2  0.026  0.000  0.023  0.049
  3  0.037  0.000  0.001  0.039
  4  0.153  0.000  0.000  0.153
  5  0.047  0.037  0.000  0.084
  6  0.047  0.037  0.000  0.084
  7  0.047  0.037  0.000  0.084
  8  0.047  0.037  0.000  0.084
tot  0.420  0.149  0.028  0.597
 
band  44 # energy    6.99716301 # occ.  0.00000000
 
ion      s      p      d    tot
  1  0.000  0.005  0.036  0.042
  2  0.000  0.015  0.035  0.051
  3  0.000  0.015  0.013  0.028
  4  0.000  0.118  0.030  0.149
  5  0.013  0.006  0.000  0.019
  6  0.013  0.006  0.000  0.019
  7  0.013  0.006  0.000  0.019
  8  0.013  0.006  0.000  0.019
tot  0.051  0.177  0.115  0.343
 
band  45 # energy    8.04379869 # occ.  0.00000000
 
ion      s      p      d    tot
  1  0.037  0.000  0.028  0.065
  2  0.000  0.000  0.038  0.039
  3  0.123  0.000  0.007  0.130
  4  0.067  0.000  0.010  0.076
  5  0.009  0.029  0.000  0.038
  6  0.009  0.029  0.000  0.038
  7  0.009  0.029  0.000  0.038
  8  0.009  0.029  0.000  0.038
tot  0.264  0.114  0.083  0.461
 
band  46 # energy    8.92990159 # occ.  0.00000000
 
ion      s      p      d    tot
  1  0.000  0.007  0.013  0.020
  2  0.000  0.001  0.022  0.023
  3  0.000  0.021  0.006  0.026
  4  0.000  0.199  0.033  0.232
  5  0.003  0.068  0.000  0.071
  6  0.003  0.068  0.000  0.071
  7  0.001  0.012  0.000  0.014
  8  0.001  0.012  0.000  0.014
tot  0.009  0.388  0.073  0.470
 
band  47 # energy    8.92989964 # occ.  0.00000000
 
ion      s      p      d    tot
  1  0.000  0.007  0.013  0.020
  2  0.000  0.001  0.022  0.023
  3  0.000  0.021  0.006  0.026
  4  0.000  0.199  0.033  0.232
  5  0.001  0.012  0.000  0.014
  6  0.001  0.012  0.000  0.014
  7  0.003  0.068  0.000  0.071
  8  0.003  0.068  0.000  0.071
tot  0.009  0.388  0.073  0.470
 
band  48 # energy   10.17101782 # occ.  0.00000000
 
ion      s      p      d    tot
  1  0.000  0.035  0.005  0.040
  2  0.000  0.011  0.001  0.013
  3  0.000  0.104  0.003  0.108
  4  0.000  0.168  0.001  0.169
  5  0.000  0.007  0.000  0.007
  6  0.000  0.007  0.000  0.007
  7  0.000  0.004  0.000  0.004
  8  0.000  0.004  0.000  0.004
tot  0.002  0.340  0.010  0.352
 
band  49 # energy   10.43932244 # occ.  0.00000000
 
ion      s      p      d    tot
  1  0.000  0.004  0.007  0.012
  2  0.105  0.006  0.003  0.113
  3  0.009  0.020  0.004  0.033
  4  0.042  0.020  0.028  0.090
  5  0.001  0.040  0.000  0.041
  6  0.008  0.025  0.000  0.032
  7  0.004  0.034  0.000  0.038
  8  0.004  0.033  0.000  0.037
tot  0.173  0.182  0.042  0.397
 
band  50 # energy   10.47336630 # occ.  0.00000000
 
ion      s      p      d    tot
  1  0.000  0.017  0.017  0.034
  2  0.000  0.020  0.009  0.029
  3  0.000  0.072  0.013  0.085
  4  0.000  0.076  0.008  0.085
  5  0.003  0.014  0.000  0.016
  6  0.003  0.013  0.000  0.016
  7  0.003  0.010  0.000  0.014
  8  0.003  0.011  0.000  0.014
tot  0.012  0.233  0.048  0.293
 
band  51 # energy   10.59515284 # occ.  0.00000000
 
ion      s      p      d    tot
  1  0.003  0.022  0.016  0.040
  2  0.032  0.010  0.006  0.049
  3  0.006  0.030  0.012  0.049
  4  0.014  0.066  0.013  0.093
  5  0.006  0.010  0.000  0.016
  6  0.000  0.026  0.000  0.026
  7  0.007  0.019  0.000  0.026
  8  0.003  0.022  0.000  0.026
tot  0.072  0.205  0.047  0.324
 
band  52 # energy   12.08563541 # occ.  0.00000000
 
ion      s      p      d    tot
  1  0.018  0.005  0.013  0.037
  2  0.000  0.024  0.008  0.033
  3  0.023  0.022  0.020  0.065
  4  0.000  0.019  0.019  0.038
  5  0.001  0.015  0.000  0.015
  6  0.000  0.010  0.000  0.011
  7  0.005  0.019  0.000  0.024
  8  0.003  0.021  0.000  0.024
tot  0.052  0.136  0.060  0.248
 

 k-point    2 :    0.16666667 0.00000000 0.00000000     weight = 0.02777778

band   1 # energy  -68.51375651 # occ.  2.00000000
 
ion      s      p      d    tot
  1  0.000  0.000  0.000  0.000
  2  0.000  0.998  0.000  0.998
  3  0.000  0.000  0.000  0.000
  4  0.000  0.000  0.000  0.000
  5  0.000  0.000  0.000  0.000
  6  0.000  0.000  0.000  0.000
  7  0.000  0.000  0.000  0.000
  8  0.000  0.000  0.000  0.000
tot  0.000  0.998  0.000  0.998
 
band   2 # energy  -68.48055457 # occ.  2.00000000
 
ion      s      p      d    tot
  1  0.000  0.997  0.000  0.997
  2  0.000  0.000  0.000  0.000
  3  0.000  0.000  0.000  0.000
  4  0.000  0.000  0.000  0.000
  5  0.000  0.000  0.000  0.000
  6  0.000  0.000  0.000  0.000
  7  0.000  0.000  0.000  0.000
  8  0.000  0.000  0.000  0.000
tot  0.000  0.998  0.000  0.998
 
band   3 # energy  -68.48044274 # occ.  2.00000000
 
ion      s      p      d    tot
  1  0.000  0.997  0.000  0.997
  2  0.000  0.000  0.000  0.000
  3  0.000  0.000  0.000  0.000
  4  0.000  0.000  0.000  0.000
  5  0.000  0.000  0.000  0.000
  6  0.000  0.000  0.000  0.000
  7  0.000  0.000  0.000  0.000
  8  0.000  0.000  0.000  0.000
tot  0.000  0.998  0.000  0.998
 
band   4 # energy  -68.46132704 # occ.  2.00000000
 
ion      s      p      d    tot
  1  0.000  0.997  0.000  0.997
  2  0.000  0.001  0.000  0.001
  3  0.000  0.000  0.000  0.000
  4  0.000  0.000  0.000  0.000
  5  0.000  0.000  0.000  0.000
  6  0.000  0.000  0.000  0.000
  7  0.000  0.000  0.000  0.000
  8  0.000  0.000  0.000  0.000
tot  0.000  0.998  0.000  0.998
 
band   5 # energy  -68.45805255 # occ.  2.00000000
 
ion      s      p      d    tot
  1  0.000  0.000  0.000  0.000
  2  0.000  0.997  0.000  0.997
  3  0.000  0.000  0.000  0.000
  4  0.000  0.000  0.000  0.000
  5  0.000  0.000  0.000  0.000
  6  0.000  0.000  0.000  0.000
  7  0.000  0.000  0.000  0.000
  8  0.000  0.000  0.000  0.000
tot  0.000  0.998  0.000  0.998
 
band   6 # energy  -68.45794662 # occ.  2.00000000
 
ion      s      p      d    tot
  1  0.000  0.001  0.000  0.001
  2  0.000  0.997  0.000  0.997
  3  0.000  0.000  0.000  0.000
  4  0.000  0.000  0.000  0.000
  5  0.000  0.000  0.000  0.000
  6  0.000  0.000  0.000  0.000
  7  0.000  0.000  0.000  0.000
  8  0.000  0.000  0.000  0.000
tot  0.000  0.998  0.000  0.998
 
band   7 # energy  -20.16004198 # occ.  2.00000000
 
ion      s      p      d    tot
  1  0.000  0.000  0.000  0.000
  2  0.000  0.000  0.000  0.000
  3  0.000  0.000  0.000  0.000
  4  0.000  0.000  0.984  0.985
  5  0.001  0.000  0.000  0.001
  6  0.001  0.000  0.000  0.001
  7  0.001  0.000  0.000  0.001
  8  0.001  0.000  0.000  0.001
tot  0.003  0.002  0.984  0.989
 
band   8 # energy  -20.15610947 # occ.  2.00000000
 
ion      s      p      d    tot
  1  0.000  0.000  0.000  0.000
  2  0.000  0.000  0.000  0.000
  3  0.000  0.000  0.000  0.000
  4  0.000  0.000  0.984  0.985
  5  0.001  0.000  0.000  0.001
  6  0.001  0.000  0.000  0.001
  7  0.001  0.000  0.000  0.001
  8  0.001  0.000  0.000  0.001
tot  0.003  0.002  0.984  0.989
 
band   9 # energy  -20.15595012 # occ.  2.00000000
 
ion      s      p      d    tot
  1  0.000  0.000  0.000  0.000
  2  0.000  0.000  0.000  0.000
  3  0.000  0.000  0.000  0.000
  4  0.000  0.000  0.984  0.985
  5  0.001  0.000  0.000  0.001
  6  0.001  0.000  0.000  0.001
  7  0.001  0.000  0.000  0.001
  8  0.001  0.000  0.000  0.001
tot  0.003  0.002  0.984  0.989
 
band  10 # energy  -20.06221305 # occ.  2.00000000
 
ion      s      p      d    tot
  1  0.000  0.000  0.000  0.000
  2  0.000  0.000  0.000  0.000
  3  0.000  0.000  0.000  0.000
  4  0.000  0.000  0.991  0.991
  5  0.000  0.000  0.000  0.000
  6  0.000  0.000  0.000  0.000
  7  0.000  0.000  0.000  0.000
  8  0.000  0.000  0.000  0.000
tot  0.000  0.000  0.991  0.991
 
band  11 # energy  -20.05687396 # occ.  2.00000000
 
ion      s      p      d    tot
  1  0.000  0.000  0.000  0.000
  2  0.000  0.000  0.000  0.000
  3  0.000  0.000  0.000  0.000
  4  0.000  0.000  0.991  0.991
  5  0.000  0.000  0.000  0.000
  6  0.000  0.000  0.000  0.000
  7  0.000  0.000  0.000  0.000
  8  0.000  0.000  0.000  0.000
tot  0.000  0.000  0.991  0.991
 
band  12 # energy  -11.62169969 # occ.  2.00000000
 
ion      s      p      d    tot
  1  0.007  0.000  0.000  0.008
  2  0.007  0.000  0.000  0.008
  3  0.021  0.001  0.001  0.022
  4  0.086  0.001  0.000  0.087
  5  0.133  0.001  0.000  0.134
  6  0.129  0.001  0.000  0.130
  7  0.128  0.001  0.000  0.129
  8  0.133  0.001  0.000  0.134
tot  0.645  0.005  0.001  0.651
 
band  13 # energy  -10.15396142 # occ.  2.00000000
 
ion      s      p      d    tot
  1  0.000  0.003  0.004  0.007
  2  0.001  0.002  0.004  0.007
  3  0.001  0.008  0.015  0.025
  4  0.006  0.021  0.010  0.036
  5  0.062  0.000  0.000  0.062
  6  0.237  0.000  0.000  0.237
  7  0.267  0.000  0.000  0.267
  8  0.072  0.000  0.000  0.073
tot  0.647  0.035  0.033  0.714
 
band  14 # energy  -10.11027333 # occ.  2.00000000
 
ion      s      p      d    tot
  1  0.001  0.003  0.004  0.007
  2  0.000  0.003  0.004  0.007
  3  0.002  0.008  0.015  0.025
  4  0.001  0.021  0.010  0.032
  5  0.185  0.000  0.000  0.185
  6  0.177  0.000  0.000  0.177
  7  0.188  0.000  0.000  0.188
  8  0.095  0.000  0.000  0.095
tot  0.648  0.035  0.034  0.716
 
band  15 # energy  -10.09574655 # occ.  2.00000000
 
ion      s      p      d    tot
  1  0.000  0.003  0.004  0.007
  2  0.001  0.003  0.004  0.007
  3  0.000  0.008  0.016  0.025
  4  0.000  0.022  0.010  0.032
  5  0.233  0.000  0.000  0.234
  6  0.069  0.000  0.000  0.070
  7  0.029  0.000  0.000  0.029
  8  0.312  0.000  0.000  0.313
tot  0.646  0.037  0.034  0.717
 
band  16 # energy   -4.77372165 # occ.  2.00000000
 
ion      s      p      d    tot
  1  0.002  0.000  0.001  0.003
  2  0.000  0.000  0.002  0.002
  3  0.007  0.001  0.674  0.682
  4  0.107  0.001  0.000  0.109
  5  0.003  0.018  0.000  0.020
  6  0.003  0.017  0.000  0.020
  7  0.003  0.021  0.000  0.024
  8  0.003  0.012  0.000  0.016
tot  0.128  0.070  0.678  0.876
 
band  17 # energy   -4.62136894 # occ.  2.00000000
 
ion      s      p      d    tot
  1  0.000  0.000  0.001  0.001
  2  0.000  0.000  0.001  0.001
  3  0.000  0.000  0.919  0.919
  4  0.001  0.002  0.001  0.003
  5  0.000  0.002  0.000  0.002
  6  0.003  0.007  0.000  0.011
  7  0.000  0.001  0.000  0.002
  8  0.004  0.011  0.000  0.015
tot  0.009  0.024  0.921  0.954
 
band  18 # energy   -4.60882899 # occ.  2.00000000
 
ion      s      p      d    tot
  1  0.000  0.000  0.001  0.001
  2  0.000  0.000  0.001  0.001
  3  0.000  0.000  0.920  0.920
  4  0.002  0.002  0.000  0.004
  5  0.005  0.009  0.000  0.014
  6  0.001  0.006  0.000  0.006
  7  0.000  0.001  0.000  0.001
  8  0.001  0.005  0.000  0.007
tot  0.010  0.024  0.922  0.955
 
band  19 # energy   -4.58793725 # occ.  2.00000000
 
ion      s      p      d    tot
  1  0.001  0.000  0.000  0.001
  2  0.000  0.000  0.001  0.001
  3  0.000  0.000  0.917  0.918
  4  0.005  0.001  0.000  0.006
  5  0.001  0.004  0.000  0.004
  6  0.002  0.003  0.000  0.005
  7  0.003  0.008  0.000  0.012
  8  0.001  0.003  0.000  0.004
tot  0.012  0.019  0.919  0.950
 
band  20 # energy   -4.58173370 # occ.  2.00000000
 
ion      s      p      d    tot
  1  0.000  0.000  0.000  0.001
  2  0.000  0.000  0.000  0.001
  3  0.000  0.000  0.936  0.937
  4  0.001  0.001  0.000  0.002
  5  0.000  0.003  0.000  0.004
  6  0.001  0.003  0.000  0.004
  7  0.000  0.003  0.000  0.003
  8  0.000  0.003  0.000  0.003
tot  0.002  0.014  0.937  0.954
 
band  21 # energy   -4.14405093 # occ.  2.00000000
 
ion      s      p      d    tot
  1  0.004  0.000  0.002  0.006
  2  0.004  0.000  0.005  0.010
  3  0.020  0.001  0.287  0.308
  4  0.285  0.001  0.000  0.286
  5  0.009  0.033  0.000  0.042
  6  0.009  0.031  0.000  0.039
  7  0.013  0.033  0.000  0.045
  8  0.008  0.036  0.000  0.044
tot  0.353  0.134  0.294  0.780
 
band  22 # energy   -1.92918267 # occ.  2.00000000
 
ion      s      p      d    tot
  1  0.011  0.000  0.019  0.030
  2  0.023  0.001  0.008  0.031
  3  0.148  0.001  0.003  0.153
  4  0.008  0.015  0.003  0.025
  5  0.003  0.079  0.000  0.082
  6  0.003  0.077  0.000  0.080
  7  0.001  0.073  0.000  0.074
  8  0.002  0.075  0.000  0.077
tot  0.198  0.322  0.033  0.552
 
band  23 # energy   -1.37201566 # occ.  2.00000000
 
ion      s      p      d    tot
  1  0.032  0.001  0.027  0.059
  2  0.025  0.004  0.012  0.041
  3  0.004  0.007  0.022  0.032
  4  0.001  0.056  0.004  0.061
  5  0.001  0.073  0.000  0.074
  6  0.000  0.072  0.000  0.073
  7  0.001  0.100  0.000  0.101
  8  0.001  0.081  0.000  0.081
tot  0.064  0.395  0.064  0.523
 
band  24 # energy   -1.17761666 # occ.  2.00000000
 
ion      s      p      d    tot
  1  0.019  0.003  0.037  0.059
  2  0.010  0.006  0.036  0.053
  3  0.004  0.006  0.029  0.039
  4  0.000  0.071  0.004  0.076
  5  0.001  0.100  0.000  0.101
  6  0.000  0.083  0.000  0.083
  7  0.000  0.044  0.000  0.044
  8  0.002  0.098  0.000  0.099
tot  0.036  0.411  0.106  0.553
 
band  25 # energy   -0.84256910 # occ.  2.00000000
 
ion      s      p      d    tot
  1  0.005  0.008  0.051  0.063
  2  0.008  0.002  0.060  0.070
  3  0.003  0.019  0.007  0.030
  4  0.001  0.065  0.005  0.070
  5  0.000  0.074  0.000  0.074
  6  0.001  0.096  0.000  0.096
  7  0.002  0.109  0.000  0.111
  8  0.000  0.054  0.000  0.054
tot  0.020  0.426  0.123  0.568
 
band  26 # energy   -0.46545825 # occ.  2.00000000
 
ion      s      p      d    tot
  1  0.005  0.006  0.046  0.057
  2  0.006  0.001  0.034  0.040
  3  0.005  0.016  0.006  0.027
  4  0.000  0.119  0.007  0.125
  5  0.001  0.102  0.000  0.102
  6  0.001  0.085  0.000  0.086
  7  0.001  0.077  0.000  0.078
  8  0.001  0.092  0.000  0.093
tot  0.019  0.496  0.092  0.608
 
band  27 # energy   -0.39055853 # occ.  2.00000000
 
ion      s      p      d    tot
  1  0.001  0.007  0.116  0.124
  2  0.005  0.001  0.071  0.077
  3  0.002  0.018  0.004  0.024
  4  0.000  0.063  0.008  0.071
  5  0.000  0.063  0.000  0.063
  6  0.001  0.101  0.000  0.102
  7  0.000  0.086  0.000  0.086
  8  0.001  0.085  0.000  0.085
tot  0.010  0.423  0.199  0.632
 
band  28 # energy   -0.10727184 # occ.  2.00000000
 
ion      s      p      d    tot
  1  0.001  0.006  0.124  0.131