  96  96   0   0
  0.2080188E+02  0.1257760E-08  0.1245754E-08  0.1274818E-08  0.5000000E-15
  1.000000000000000E-004
  CAR 
 MAPbI3-Cubic                            
     10.62453448    -19.55314166  301      1.52093551      1.00000000
    -19.553  0.0000E+00  0.0000E+00
    -19.453  0.0000E+00  0.0000E+00
    -19.352  0.0000E+00  0.0000E+00
    -19.251  0.0000E+00  0.0000E+00
    -19.151  0.0000E+00  0.0000E+00
    -19.050  0.0000E+00  0.0000E+00
    -18.950  0.0000E+00  0.0000E+00
    -18.849  0.0000E+00  0.0000E+00
    -18.748  0.0000E+00  0.0000E+00
    -18.648  0.0000E+00  0.0000E+00
    -18.547  0.0000E+00  0.0000E+00
    -18.447  0.0000E+00  0.0000E+00
    -18.346  0.0000E+00  0.0000E+00
    -18.245  0.0000E+00  0.0000E+00
    -18.145  0.0000E+00  0.1600E+02
    -18.044  0.0000E+00  0.1600E+02
    -17.944  0.0000E+00  0.1600E+02
    -17.843  0.0000E+00  0.1600E+02
    -17.742  0.0000E+00  0.1600E+02
    -17.642  0.0000E+00  0.1600E+02
    -17.541  0.0000E+00  0.1600E+02
    -17.441  0.0000E+00  0.1600E+02
    -17.340  0.0000E+00  0.1600E+02
    -17.240  0.0000E+00  0.1600E+02
    -17.139  0.0000E+00  0.1600E+02
    -17.038  0.0000E+00  0.1600E+02
    -16.938  0.0000E+00  0.1600E+02
    -16.837  0.0000E+00  0.1600E+02
    -16.737  0.0000E+00  0.1600E+02
    -16.636  0.0000E+00  0.1600E+02
    -16.535  0.0000E+00  0.1600E+02
    -16.435  0.1183E-10  0.3200E+02
    -16.334  0.0000E+00  0.4800E+02
    -16.234  0.0000E+00  0.4800E+02
    -16.133  0.0000E+00  0.4800E+02
    -16.032  0.0000E+00  0.4800E+02
    -15.932  0.0000E+00  0.4800E+02
    -15.831  0.0000E+00  0.4800E+02
    -15.731  0.0000E+00  0.4800E+02
    -15.630  0.0000E+00  0.4800E+02
    -15.529  0.0000E+00  0.4800E+02
    -15.429  0.0000E+00  0.4800E+02
    -15.328  0.0000E+00  0.4800E+02
    -15.228  0.0000E+00  0.4800E+02
    -15.127  0.0000E+00  0.4800E+02
    -15.026  0.0000E+00  0.4800E+02
    -14.926  0.0000E+00  0.4800E+02
    -14.825  0.0000E+00  0.4800E+02
    -14.725  0.0000E+00  0.4800E+02
    -14.624  0.0000E+00  0.4800E+02
    -14.524  0.0000E+00  0.4800E+02
    -14.423  0.0000E+00  0.4800E+02
    -14.322  0.0000E+00  0.4800E+02
    -14.222  0.0000E+00  0.4800E+02
    -14.121  0.0000E+00  0.4800E+02
    -14.021  0.0000E+00  0.4800E+02
    -13.920  0.1035E+01  0.4810E+02
    -13.819  0.0000E+00  0.9600E+02
    -13.719  0.0000E+00  0.9600E+02
    -13.618  0.0000E+00  0.9600E+02
    -13.518  0.0000E+00  0.9600E+02
    -13.417  0.0000E+00  0.9600E+02
    -13.316  0.0000E+00  0.9600E+02
    -13.216  0.0000E+00  0.9600E+02
    -13.115  0.0000E+00  0.9600E+02
    -13.015  0.0000E+00  0.9600E+02
    -12.914  0.0000E+00  0.9600E+02
    -12.813  0.0000E+00  0.9600E+02
    -12.713  0.0000E+00  0.9600E+02
    -12.612  0.0000E+00  0.9600E+02
    -12.512  0.0000E+00  0.9600E+02
    -12.411  0.0000E+00  0.9600E+02
    -12.310  0.0000E+00  0.9600E+02
    -12.210  0.0000E+00  0.9600E+02
    -12.109  0.0000E+00  0.9600E+02
    -12.009  0.0000E+00  0.9600E+02
    -11.908  0.0000E+00  0.9600E+02
    -11.808  0.0000E+00  0.9600E+02
    -11.707  0.0000E+00  0.9600E+02
    -11.606  0.0000E+00  0.9600E+02
    -11.506  0.0000E+00  0.9600E+02
    -11.405  0.0000E+00  0.9600E+02
    -11.305  0.0000E+00  0.1040E+03
    -11.204  0.0000E+00  0.1120E+03
    -11.103  0.0000E+00  0.1120E+03
    -11.003  0.0000E+00  0.1120E+03
    -10.902  0.0000E+00  0.1120E+03
    -10.802  0.0000E+00  0.1121E+03
    -10.701  0.0000E+00  0.1141E+03
    -10.600  0.7364E+01  0.1195E+03
    -10.500  0.3050E+01  0.1259E+03
    -10.399  0.2658E+01  0.1291E+03
    -10.299  0.4543E+01  0.1363E+03
    -10.198  0.6244E+01  0.1406E+03
    -10.097  0.2211E+02  0.1467E+03
     -9.997  0.2090E+01  0.1552E+03
     -9.896  0.0000E+00  0.1600E+03
     -9.796  0.0000E+00  0.1600E+03
     -9.695  0.0000E+00  0.1600E+03
     -9.595  0.0000E+00  0.1600E+03
     -9.494  0.0000E+00  0.1600E+03
     -9.393  0.0000E+00  0.1600E+03
     -9.293  0.0000E+00  0.1600E+03
     -9.192  0.0000E+00  0.1600E+03
     -9.092  0.0000E+00  0.1600E+03
     -8.991  0.0000E+00  0.1600E+03
     -8.890  0.0000E+00  0.1600E+03
     -8.790  0.0000E+00  0.1600E+03
     -8.689  0.0000E+00  0.1600E+03
     -8.589  0.0000E+00  0.1600E+03
     -8.488  0.0000E+00  0.1600E+03
     -8.387  0.0000E+00  0.1600E+03
     -8.287  0.0000E+00  0.1600E+03
     -8.186  0.0000E+00  0.1600E+03
     -8.086  0.0000E+00  0.1600E+03
     -7.985  0.0000E+00  0.1600E+03
     -7.884  0.0000E+00  0.1600E+03
     -7.784  0.0000E+00  0.1600E+03
     -7.683  0.3644E+02  0.1663E+03
     -7.583  0.0000E+00  0.1840E+03
     -7.482  0.0000E+00  0.1920E+03
     -7.381  0.0000E+00  0.1920E+03
     -7.281  0.0000E+00  0.1920E+03
     -7.180  0.0000E+00  0.1920E+03
     -7.080  0.0000E+00  0.1920E+03
     -6.979  0.0000E+00  0.1920E+03
     -6.879  0.0000E+00  0.1921E+03
     -6.778  0.0000E+00  0.1925E+03
     -6.677  0.0000E+00  0.1934E+03
     -6.577  0.3029E+01  0.1937E+03
     -6.476  0.0000E+00  0.1944E+03
     -6.376  0.0000E+00  0.1964E+03
     -6.275  0.0000E+00  0.1988E+03
     -6.174  0.0000E+00  0.2000E+03
     -6.074  0.2704E+01  0.2016E+03
     -5.973  0.0000E+00  0.2036E+03
     -5.873  0.2946E+01  0.2058E+03
     -5.772  0.3003E+01  0.2139E+03
     -5.671  0.8837E+01  0.2216E+03
     -5.571  0.0000E+00  0.2235E+03
     -5.470  0.2214E+01  0.2239E+03
     -5.370  0.0000E+00  0.2239E+03
     -5.269  0.0000E+00  0.2240E+03
     -5.168  0.0000E+00  0.2240E+03
     -5.068  0.0000E+00  0.2240E+03
     -4.967  0.0000E+00  0.2240E+03
     -4.867  0.0000E+00  0.2240E+03
     -4.766  0.0000E+00  0.2240E+03
     -4.665  0.0000E+00  0.2240E+03
     -4.565  0.0000E+00  0.2240E+03
     -4.464  0.0000E+00  0.2240E+03
     -4.364  0.0000E+00  0.2240E+03
     -4.263  0.0000E+00  0.2240E+03
     -4.163  0.0000E+00  0.2240E+03
     -4.062  0.0000E+00  0.2240E+03
     -3.961  0.0000E+00  0.2240E+03
     -3.861  0.0000E+00  0.2240E+03
     -3.760  0.0000E+00  0.2240E+03
     -3.660  0.0000E+00  0.2240E+03
     -3.559  0.1967E+02  0.2320E+03
     -3.458  0.0000E+00  0.2560E+03
     -3.358  0.0000E+00  0.2560E+03
     -3.257  0.0000E+00  0.2560E+03
     -3.157  0.0000E+00  0.2560E+03
     -3.056  0.0000E+00  0.2560E+03
     -2.955  0.0000E+00  0.2560E+03
     -2.855  0.0000E+00  0.2560E+03
     -2.754  0.0000E+00  0.2560E+03
     -2.654  0.0000E+00  0.2560E+03
     -2.553  0.0000E+00  0.2560E+03
     -2.452  0.0000E+00  0.2560E+03
     -2.352  0.0000E+00  0.2560E+03
     -2.251  0.0000E+00  0.2560E+03
     -2.151  0.2170E-11  0.2567E+03
     -2.050  0.2209E+01  0.2595E+03
     -1.949  0.2946E+01  0.2621E+03
     -1.849  0.5151E+01  0.2651E+03
     -1.748  0.5965E+01  0.2681E+03
     -1.648  0.3637E+01  0.2722E+03
     -1.547  0.4312E+01  0.2759E+03
     -1.447  0.1473E+01  0.2790E+03
     -1.346  0.1710E+01  0.2799E+03
     -1.245  0.2945E+01  0.2806E+03
     -1.145  0.4307E+01  0.2844E+03
     -1.044  0.5515E+01  0.2873E+03
     -0.944  0.3319E+01  0.2928E+03
     -0.843  0.1658E+01  0.2967E+03
     -0.742  0.3080E+01  0.3008E+03
     -0.642  0.1450E+01  0.3028E+03
     -0.541  0.1565E+01  0.3075E+03
     -0.441  0.4512E+01  0.3134E+03
     -0.340  0.1220E+01  0.3189E+03
     -0.239  0.1476E+01  0.3225E+03
     -0.139  0.6400E+01  0.3290E+03
     -0.038  0.4627E+01  0.3365E+03
      0.062  0.5963E+01  0.3453E+03
      0.163  0.1776E+01  0.3514E+03
      0.264  0.9566E+01  0.3556E+03
      0.364  0.7802E+00  0.3600E+03
      0.465  0.4551E+01  0.3661E+03
      0.565  0.2940E+01  0.3721E+03
      0.666  0.3022E+01  0.3790E+03
      0.766  0.4841E+01  0.3872E+03
      0.867  0.5168E+01  0.3930E+03
      0.968  0.1428E-01  0.3962E+03
      1.068  0.1059E-03  0.3978E+03
      1.169  0.1370E+01  0.3992E+03
      1.269  0.0000E+00  0.3995E+03
      1.370  0.0000E+00  0.3999E+03
      1.471  0.0000E+00  0.3999E+03
      1.571  0.0000E+00  0.4000E+03
      1.672  0.0000E+00  0.4000E+03
      1.772  0.0000E+00  0.4000E+03
      1.873  0.0000E+00  0.4000E+03
      1.974  0.0000E+00  0.4000E+03
      2.074  0.0000E+00  0.4000E+03
      2.175  0.0000E+00  0.4001E+03
      2.275  0.0000E+00  0.4001E+03
      2.376  0.0000E+00  0.4002E+03
      2.477  0.0000E+00  0.4003E+03
      2.577  0.0000E+00  0.4004E+03
      2.678  0.0000E+00  0.4009E+03
      2.778  0.1473E+01  0.4013E+03
      2.879  0.2209E+01  0.4021E+03
      2.980  0.1594E-14  0.4022E+03
      3.080  0.7392E+00  0.4030E+03
      3.181  0.8703E-02  0.4040E+03
      3.281  0.7364E+00  0.4048E+03
      3.382  0.5227E-07  0.4057E+03
      3.482  0.7821E+00  0.4069E+03
      3.583  0.1550E-04  0.4082E+03
      3.684  0.0000E+00  0.4093E+03
      3.784  0.3670E+01  0.4103E+03
      3.885  0.9721E-06  0.4113E+03
      3.985  0.7364E+00  0.4124E+03
      4.086  0.7364E+00  0.4138E+03
      4.187  0.2213E+01  0.4157E+03
      4.287  0.2942E+01  0.4175E+03
      4.388  0.2291E-01  0.4193E+03
      4.488  0.0000E+00  0.4207E+03
      4.589  0.5273E-14  0.4219E+03
      4.690  0.7364E+00  0.4228E+03
      4.790  0.1473E+01  0.4235E+03
      4.891  0.7364E+00  0.4242E+03
      4.991  0.1206E-14  0.4249E+03
      5.092  0.2591E-04  0.4254E+03
      5.193  0.2632E+01  0.4269E+03
      5.293  0.2926E+01  0.4280E+03
      5.394  0.1499E+01  0.4307E+03
      5.494  0.5213E+01  0.4338E+03
      5.595  0.1930E+01  0.4363E+03
      5.696  0.1675E+00  0.4388E+03
      5.796  0.5597E+00  0.4410E+03
      5.897  0.3162E+01  0.4435E+03
      5.997  0.1710E+01  0.4465E+03
      6.098  0.4152E+01  0.4502E+03
      6.198  0.1881E-10  0.4538E+03
      6.299  0.2209E+01  0.4585E+03
      6.400  0.7771E+00  0.4622E+03
      6.500  0.1945E+01  0.4673E+03
      6.601  0.3707E+01  0.4729E+03
      6.701  0.2386E+01  0.4777E+03
      6.802  0.3681E+01  0.4819E+03
      6.903  0.6452E-05  0.4864E+03
      7.003  0.1264E-06  0.4887E+03
      7.104  0.1334E-02  0.4924E+03
      7.204  0.3094E+01  0.4993E+03
      7.305  0.8407E+00  0.5033E+03
      7.406  0.6914E+01  0.5085E+03
      7.506  0.7364E+00  0.5127E+03
      7.607  0.2886E+01  0.5169E+03
      7.707  0.2781E+01  0.5217E+03
      7.808  0.1915E+01  0.5272E+03
      7.909  0.6058E+01  0.5325E+03
      8.009  0.4877E+01  0.5384E+03
      8.110  0.8782E+01  0.5441E+03
      8.210  0.4591E+01  0.5481E+03
      8.311  0.2737E+01  0.5540E+03
      8.412  0.3522E+01  0.5592E+03
      8.512  0.2248E+01  0.5654E+03
      8.613  0.5471E+01  0.5720E+03
      8.713  0.8963E+01  0.5776E+03
      8.814  0.2587E+01  0.5831E+03
      8.914  0.3663E+01  0.5901E+03
      9.015  0.4026E+01  0.5953E+03
      9.116  0.3943E+01  0.5980E+03
      9.216  0.1323E+01  0.5998E+03
      9.317  0.0000E+00  0.6000E+03
      9.417  0.0000E+00  0.6000E+03
      9.518  0.0000E+00  0.6000E+03
      9.619  0.0000E+00  0.6000E+03
      9.719  0.0000E+00  0.6000E+03
      9.820  0.0000E+00  0.6000E+03
      9.920  0.0000E+00  0.6000E+03
     10.021  0.0000E+00  0.6000E+03
     10.122  0.0000E+00  0.6000E+03
     10.222  0.0000E+00  0.6000E+03
     10.323  0.0000E+00  0.6000E+03
     10.423  0.0000E+00  0.6000E+03
     10.524  0.0000E+00  0.6000E+03
     10.625  0.0000E+00  0.6000E+03
