 vasp.5.4.1 24Jun15 (build Nov 25 2015 16:39:35) complex                        
  
 executed on         CrayXC-Intel date 2016.06.22  00:47:58
 running on  192 total cores
 distrk:  each k-point on  192 cores,    1 groups
 distr:  one band on NCORES_PER_BAND=  24 cores,    8 groups


--------------------------------------------------------------------------------------------------------


 INCAR:
 POTCAR:    PAW_PBE C 08Apr2002                   
 POTCAR:    PAW_PBE N 08Apr2002                   
 POTCAR:    PAW_PBE H 15Jun2001                   
 POTCAR:    PAW_PBE Pb_d 06Sep2000                
 POTCAR:    PAW_PBE I 08Apr2002                   
 POTCAR:    PAW_PBE C 08Apr2002                   
   VRHFIN =C: s2p2                                                              
   LEXCH  = PE                                                                  
   EATOM  =   147.1560 eV,   10.8157 Ry                                         
                                                                                
   TITEL  = PAW_PBE C 08Apr2002                                                 
   LULTRA =        F    use ultrasoft PP ?                                      
   IUNSCR =        1    unscreen: 0-lin 1-nonlin 2-no                           
   RPACOR =    1.200    partial core radius                                     
   POMASS =   12.011; ZVAL   =    4.000    mass and valenz                      
   RCORE  =    1.500    outmost cutoff radius                                   
   RWIGS  =    1.630; RWIGS  =    0.863    wigner-seitz radius (au A)           
   ENMAX  =  400.000; ENMIN  =  300.000 eV                                      
   ICORE  =        2    local potential                                         
   LCOR   =        T    correct aug charges                                     
   LPAW   =        T    paw PP                                                  
   EAUG   =  644.873                                                            
   DEXC   =    0.000                                                            
   RMAX   =    1.529    core radius for proj-oper                               
   RAUG   =    1.300    factor for augmentation sphere                          
   RDEP   =    1.501    radius for radial grids                                 
   RDEPT  =    1.300    core radius for aug-charge                              
                                                                                
   Atomic configuration                                                         
    4 entries                                                                   
     n  l   j            E        occ.                                          
     1  0  0.50      -273.3789   2.0000                                         
     2  0  0.50       -13.7508   2.0000                                         
     2  1  0.50        -5.2854   2.0000                                         
     3  2  1.50        -5.4423   0.0000                                         
   Description                                                                  
     l       E           TYP  RCUT    TYP  RCUT                                 
     0    -13.7508458     23  1.200                                             
     0     -8.2022199     23  1.200                                             
     1     -5.2854383     23  1.500                                             
     1     34.0145650     23  1.500                                             
     2     -5.4423304      7  1.500                                             
  local pseudopotential read in
  partial core-charges read in
  partial kinetic energy density read in
  atomic valenz-charges read in
  non local Contribution for L=           0  read in
    real space projection operators read in
  non local Contribution for L=           0  read in
    real space projection operators read in
  non local Contribution for L=           1  read in
    real space projection operators read in
  non local Contribution for L=           1  read in
    real space projection operators read in
    PAW grid and wavefunctions read in
 
   number of l-projection  operators is LMAX  =           4
   number of lm-projection operators is LMMAX =           8
 
 POTCAR:    PAW_PBE N 08Apr2002                   
   VRHFIN =N: s2p3                                                              
   LEXCH  = PE                                                                  
   EATOM  =   264.5486 eV,   19.4438 Ry                                         
                                                                                
   TITEL  = PAW_PBE N 08Apr2002                                                 
   LULTRA =        F    use ultrasoft PP ?                                      
   IUNSCR =        1    unscreen: 0-lin 1-nonlin 2-no                           
   RPACOR =    1.200    partial core radius                                     
   POMASS =   14.001; ZVAL   =    5.000    mass and valenz                      
   RCORE  =    1.500    outmost cutoff radius                                   
   RWIGS  =    1.400; RWIGS  =    0.741    wigner-seitz radius (au A)           
   ENMAX  =  400.000; ENMIN  =  300.000 eV                                      
   ICORE  =        2    local potential                                         
   LCOR   =        T    correct aug charges                                     
   LPAW   =        T    paw PP                                                  
   EAUG   =  627.112                                                            
   DEXC   =    0.000                                                            
   RMAX   =    1.529    core radius for proj-oper                               
   RAUG   =    1.300    factor for augmentation sphere                          
   RDEP   =    1.514    radius for radial grids                                 
   RDEPT  =    1.338    core radius for aug-charge                              
                                                                                
   Atomic configuration                                                         
    4 entries                                                                   
     n  l   j            E        occ.                                          
     1  0  0.50      -384.7179   2.0000                                         
     2  0  0.50       -18.5828   2.0000                                         
     2  1  0.50        -7.0898   3.0000                                         
     3  2  1.50        -6.8029   0.0000                                         
   Description                                                                  
     l       E           TYP  RCUT    TYP  RCUT                                 
     0    -18.5828119     23  1.200                                             
     0    -13.5018863     23  1.200                                             
     1     -7.0897853     23  1.500                                             
     1      9.5240782     23  1.500                                             
     2     -6.8029130      7  1.500                                             
  local pseudopotential read in
  partial core-charges read in
  partial kinetic energy density read in
  atomic valenz-charges read in
  non local Contribution for L=           0  read in
    real space projection operators read in
  non local Contribution for L=           0  read in
    real space projection operators read in
  non local Contribution for L=           1  read in
    real space projection operators read in
  non local Contribution for L=           1  read in
    real space projection operators read in
    PAW grid and wavefunctions read in
 
   number of l-projection  operators is LMAX  =           4
   number of lm-projection operators is LMMAX =           8
 
 POTCAR:    PAW_PBE H 15Jun2001                   
   VRHFIN =H: ultrasoft test                                                    
   LEXCH  = PE                                                                  
   EATOM  =    12.4884 eV,    0.9179 Ry                                         
                                                                                
   TITEL  = PAW_PBE H 15Jun2001                                                 
   LULTRA =        F    use ultrasoft PP ?                                      
   IUNSCR =        0    unscreen: 0-lin 1-nonlin 2-no                           
   RPACOR =    0.000    partial core radius                                     
   POMASS =    1.000; ZVAL   =    1.000    mass and valenz                      
   RCORE  =    1.100    outmost cutoff radius                                   
   RWIGS  =    0.700; RWIGS  =    0.370    wigner-seitz radius (au A)           
   ENMAX  =  250.000; ENMIN  =  200.000 eV                                      
   RCLOC  =    0.701    cutoff for local pot                                    
   LCOR   =        T    correct aug charges                                     
   LPAW   =        T    paw PP                                                  
   EAUG   =  400.000                                                            
   RMAX   =    1.123    core radius for proj-oper                               
   RAUG   =    1.200    factor for augmentation sphere                          
   RDEP   =    1.112    radius for radial grids                                 
   RDEPT  =    0.926    core radius for aug-charge                              
                                                                                
   Atomic configuration                                                         
    2 entries                                                                   
     n  l   j            E        occ.                                          
     1  0  0.50        -6.4927   1.0000                                         
     2  1  0.50        -3.4015   0.0000                                         
   Description                                                                  
     l       E           TYP  RCUT    TYP  RCUT                                 
     0     -6.4927494     23  1.100                                             
     0      6.8029130     23  1.100                                             
     1     -4.0817478     23  1.100                                             
  local pseudopotential read in
  atomic valenz-charges read in
  non local Contribution for L=           0  read in
    real space projection operators read in
  non local Contribution for L=           0  read in
    real space projection operators read in
  non local Contribution for L=           1  read in
    real space projection operators read in
    PAW grid and wavefunctions read in
 
   number of l-projection  operators is LMAX  =           3
   number of lm-projection operators is LMMAX =           5
 
 POTCAR:    PAW_PBE Pb_d 06Sep2000                
   VRHFIN =Pb:                                                                  
   LEXCH  = PE                                                                  
   EATOM  =  1661.6185 eV,  122.1255 Ry                                         
                                                                                
   TITEL  = PAW_PBE Pb_d 06Sep2000                                              
   LULTRA =        F    use ultrasoft PP ?                                      
   IUNSCR =        1    unscreen: 0-lin 1-nonlin 2-no                           
   RPACOR =    2.200    partial core radius                                     
   POMASS =  207.200; ZVAL   =   14.000    mass and valenz                      
   RCORE  =    2.500    outmost cutoff radius                                   
   RWIGS  =    3.260; RWIGS  =    1.725    wigner-seitz radius (au A)           
   ENMAX  =  237.835; ENMIN  =  178.376 eV                                      
   ICORE  =        3    local potential                                         
   LCOR   =        T    correct aug charges                                     
   LPAW   =        T    paw PP                                                  
   EAUG   =  391.914                                                            
   DEXC   =    0.000                                                            
   RMAX   =    2.565    core radius for proj-oper                               
   RAUG   =    1.300    factor for augmentation sphere                          
   RDEP   =    2.643    radius for radial grids                                 
   RDEPT  =    2.092    core radius for aug-charge                              
                                                                                
   Atomic configuration                                                         
   16 entries                                                                   
     n  l   j            E        occ.                                          
     1  0  0.50    -88091.8466   2.0000                                         
     2  0  0.50    -15753.4197   2.0000                                         
     2  1  1.50    -13508.1797   6.0000                                         
     3  0  0.50     -3781.7194   2.0000                                         
     3  1  1.50     -3138.2529   6.0000                                         
     3  2  2.50     -2483.2977  10.0000                                         
     4  0  0.50      -856.2895   2.0000                                         
     4  1  1.50      -645.4942   6.0000                                         
     4  2  2.50      -401.8768  10.0000                                         
     4  3  3.50      -132.9059  14.0000                                         
     5  0  0.50      -144.0950   2.0000                                         
     5  1  1.50       -85.7879   6.0000                                         
     5  2  2.50       -21.1769  10.0000                                         
     6  0  0.50       -12.0372   2.0000                                         
     6  1  1.50        -3.4971   2.0000                                         
     5  3  2.50        -2.7212   0.0000                                         
   Description                                                                  
     l       E           TYP  RCUT    TYP  RCUT                                 
     2    -21.1768523     23  2.500                                             
     2      1.3605826     23  2.500                                             
     0    -12.0371562     23  2.500                                             
     0     13.6058260     23  2.500                                             
     1     -3.4971339     23  2.500                                             
     1     13.6058260     23  2.500                                             
     3     -1.3605826      7  2.500                                             
  local pseudopotential read in
  partial core-charges read in
  partial kinetic energy density read in
  atomic valenz-charges read in
  non local Contribution for L=           2  read in
    real space projection operators read in
  non local Contribution for L=           2  read in
    real space projection operators read in
  non local Contribution for L=           0  read in
    real space projection operators read in
  non local Contribution for L=           0  read in
    real space projection operators read in
  non local Contribution for L=           1  read in
    real space projection operators read in
  non local Contribution for L=           1  read in
    real space projection operators read in
    PAW grid and wavefunctions read in
 
   number of l-projection  operators is LMAX  =           6
   number of lm-projection operators is LMMAX =          18
 
 POTCAR:    PAW_PBE I 08Apr2002                   
   VRHFIN =I : s2p5                                                             
   LEXCH  = PE                                                                  
   EATOM  =   315.8678 eV,   23.2156 Ry                                         
                                                                                
   TITEL  = PAW_PBE I 08Apr2002                                                 
   LULTRA =        F    use ultrasoft PP ?                                      
   IUNSCR =        1    unscreen: 0-lin 1-nonlin 2-no                           
   RPACOR =    2.200    partial core radius                                     
   POMASS =  126.904; ZVAL   =    7.000    mass and valenz                      
   RCORE  =    2.300    outmost cutoff radius                                   
   RWIGS  =    2.810; RWIGS  =    1.487    wigner-seitz radius (au A)           
   ENMAX  =  175.647; ENMIN  =  131.735 eV                                      
   ICORE  =        3    local potential                                         
   LCOR   =        T    correct aug charges                                     
   LPAW   =        T    paw PP                                                  
   EAUG   =  370.139                                                            
   DEXC   =    0.000                                                            
   RMAX   =    2.359    core radius for proj-oper                               
   RAUG   =    1.300    factor for augmentation sphere                          
   RDEP   =    2.392    radius for radial grids                                 
   RDEPT  =    2.170    core radius for aug-charge                              
                                                                                
   Atomic configuration                                                         
   13 entries                                                                   
     n  l   j            E        occ.                                          
     1  0  0.50    -32976.3739   2.0000                                         
     2  0  0.50     -5094.5933   2.0000                                         
     2  1  1.50     -4572.0131   6.0000                                         
     3  0  0.50     -1028.2813   2.0000                                         
     3  1  1.50      -859.0250   6.0000                                         
     3  2  2.50      -605.7620  10.0000                                         
     4  0  0.50      -180.5540   2.0000                                         
     4  1  1.50      -127.5306   6.0000                                         
     4  2  2.50       -50.2720  10.0000                                         
     5  0  0.50       -17.4058   2.0000                                         
     5  1  0.50        -7.0851   5.0000                                         
     5  2  1.50        -7.0750   0.0000                                         
     4  3  2.50        -7.0750   0.0000                                         
   Description                                                                  
     l       E           TYP  RCUT    TYP  RCUT                                 
     0    -17.4058016     23  2.300                                             
     0    -18.7663842     23  2.300                                             
     1     -7.0850686     23  2.300                                             
     1     -4.2150896     23  2.300                                             
     2     -7.0750295     23  2.300                                             
     3     -1.3605826     23  2.300                                             
  local pseudopotential read in
  partial core-charges read in
  partial kinetic energy density read in
  atomic valenz-charges read in
  non local Contribution for L=           0  read in
    real space projection operators read in
  non local Contribution for L=           0  read in
    real space projection operators read in
  non local Contribution for L=           1  read in
    real space projection operators read in
  non local Contribution for L=           1  read in
    real space projection operators read in
  non local Contribution for L=           2  read in
    real space projection operators read in
    PAW grid and wavefunctions read in
 
   number of l-projection  operators is LMAX  =           5
   number of lm-projection operators is LMMAX =          13
 

 ----------------------------------------------------------------------------- 
|                                                                             |
|  ADVICE TO THIS USER RUNNING 'VASP/VAMP'   (HEAR YOUR MASTER'S VOICE ...):  |
|                                                                             |
|      You have a (more or less) 'large supercell' and for larger cells       |
|      it might be more efficient to use real space projection opertators     |
|      So try LREAL= Auto  in the INCAR   file.                               |
|      Mind: At the moment your POTCAR file does not contain real space       |
|       projectors, and has to be modified,  BUT if you                       |
|      want to do an extremely  accurate calculation you might also keep the  |
|      reciprocal projection scheme          (i.e. LREAL=.FALSE.)             |
|                                                                             |
 ----------------------------------------------------------------------------- 


 ----------------------------------------------------------------------------- 
|                                                                             |
|  ADVICE TO THIS USER RUNNING 'VASP/VAMP'   (HEAR YOUR MASTER'S VOICE ...):  |
|                                                                             |
|      You enforced a specific xc-type in the INCAR file,                     |
|      a different type was found on the POTCAR file                          |
|          I HOPE YOU KNOW, WHAT YOU ARE  DOING                               |
|                                                                             |
 ----------------------------------------------------------------------------- 

  PAW_PBE C 08Apr2002                   :
 energy of atom  1       EATOM= -147.1560
 kinetic energy error for atom=    0.0032 (will be added to EATOM!!)
  PAW_PBE N 08Apr2002                   :
 energy of atom  2       EATOM= -264.5486
 kinetic energy error for atom=    0.0061 (will be added to EATOM!!)
  PAW_PBE H 15Jun2001                   :
 energy of atom  3       EATOM=  -12.4884
 kinetic energy error for atom=    0.0002 (will be added to EATOM!!)
  PAW_PBE Pb_d 06Sep2000                :
 energy of atom  4       EATOM=-1661.6185
 kinetic energy error for atom=    0.0012 (will be added to EATOM!!)
  PAW_PBE I 08Apr2002                   :
 energy of atom  5       EATOM= -315.8678
 kinetic energy error for atom=    0.0003 (will be added to EATOM!!)
 
 
 POSCAR: C N H Pb I                              
  positions in direct lattice
  No initial velocities read in
 exchange correlation table for  LEXCH =       14
   RHO(1)=    0.500       N(1)  =     2000
   RHO(2)=  100.500       N(2)  =     4000
 


--------------------------------------------------------------------------------------------------------


 ion  position               nearest neighbor table
   1  0.198  0.250  0.229-  25 1.10  33 1.10  17 1.11   9 1.49
   2  0.696  0.250  0.229-  26 1.10  34 1.10  18 1.11  10 1.49
   3  0.196  0.750  0.229-  27 1.10  35 1.10  19 1.11  11 1.49
   4  0.698  0.750  0.229-  28 1.10  36 1.10  20 1.11  12 1.49
   5  0.196  0.250  0.729-  29 1.10  37 1.10  21 1.11  13 1.49
   6  0.698  0.250  0.729-  30 1.10  38 1.10  22 1.11  14 1.49
   7  0.198  0.750  0.729-  31 1.10  39 1.10  23 1.11  15 1.49
   8  0.696  0.750  0.729-  32 1.10  40 1.10  24 1.11  16 1.49
   9  0.311  0.250  0.260-  41 1.05  49 1.05  57 1.06   1 1.49
  10  0.798  0.250  0.288-  58 1.05  42 1.05  50 1.05   2 1.49
  11  0.298  0.750  0.288-  59 1.05  43 1.05  51 1.05   3 1.49
  12  0.811  0.750  0.260-  44 1.05  52 1.05  60 1.06   4 1.49
  13  0.298  0.250  0.788-  61 1.05  45 1.05  53 1.05   5 1.49
  14  0.811  0.250  0.760-  46 1.05  54 1.05  62 1.06   6 1.49
  15  0.311  0.750  0.760-  47 1.05  55 1.05  63 1.06   7 1.49
  16  0.798  0.750  0.788-  64 1.05  48 1.05  56 1.05   8 1.49
  17  0.195  0.250  0.142-   1 1.11
  18  0.715  0.250  0.144-   2 1.11
  19  0.215  0.750  0.144-   3 1.11
  20  0.695  0.750  0.142-   4 1.11
  21  0.215  0.250  0.644-   5 1.11
  22  0.695  0.250  0.642-   6 1.11
  23  0.195  0.750  0.642-   7 1.11
  24  0.715  0.750  0.644-   8 1.11
  25  0.158  0.322  0.260-   1 1.10
  26  0.651  0.322  0.251-   2 1.10
  27  0.151  0.822  0.251-   3 1.10
  28  0.658  0.822  0.260-   4 1.10
  29  0.151  0.322  0.751-   5 1.10
  30  0.658  0.322  0.760-   6 1.10
  31  0.158  0.822  0.760-   7 1.10
  32  0.651  0.822  0.751-   8 1.10
  33  0.158  0.177  0.260-   1 1.10
  34  0.651  0.177  0.251-   2 1.10
  35  0.151  0.677  0.251-   3 1.10
  36  0.658  0.677  0.260-   4 1.10
  37  0.151  0.177  0.751-   5 1.10
  38  0.658  0.177  0.760-   6 1.10
  39  0.158  0.677  0.760-   7 1.10
  40  0.651  0.677  0.751-   8 1.10
  41  0.352  0.318  0.232-   9 1.05
  42  0.844  0.318  0.270-  10 1.05
  43  0.344  0.818  0.270-  11 1.05
  44  0.852  0.818  0.232-  12 1.05
  45  0.344  0.318  0.770-  13 1.05
  46  0.852  0.318  0.732-  14 1.05
  47  0.352  0.818  0.732-  15 1.05
  48  0.844  0.818  0.770-  16 1.05
  49  0.352  0.182  0.232-   9 1.05
  50  0.844  0.182  0.270-  10 1.05
  51  0.344  0.682  0.270-  11 1.05
  52  0.852  0.682  0.232-  12 1.05
  53  0.344  0.182  0.770-  13 1.05
  54  0.852  0.182  0.732-  14 1.05
  55  0.352  0.682  0.732-  15 1.05
  56  0.844  0.682  0.770-  16 1.05
  57  0.321  0.250  0.342-   9 1.06
  58  0.785  0.250  0.369-  10 1.05
  59  0.285  0.750  0.369-  11 1.05
  60  0.821  0.750  0.342-  12 1.06
  61  0.285  0.250  0.869-  13 1.05
  62  0.821  0.250  0.842-  14 1.06
  63  0.321  0.750  0.842-  15 1.06
  64  0.785  0.750  0.869-  16 1.05
  65  0.472  0.498  0.489-  90 3.10  87 3.15  85 3.17  77 3.17  73 3.22  89 3.28
  66  0.972  0.502  0.489-  89 3.10  86 3.15  88 3.17  78 3.17  74 3.22  90 3.28
  67  0.472  0.002  0.489-  92 3.10  87 3.15  85 3.17  79 3.17  75 3.22  91 3.28
  68  0.972  0.998  0.489-  91 3.10  86 3.15  88 3.17  80 3.17  76 3.22  92 3.28
  69  0.472  0.502  0.989-  94 3.10  81 3.15  83 3.17  73 3.17  77 3.22  93 3.28
  70  0.972  0.498  0.989-  93 3.10  84 3.15  82 3.17  74 3.17  78 3.22  94 3.28
  71  0.472  0.998  0.989-  96 3.10  81 3.15  83 3.17  75 3.17  79 3.22  95 3.28
  72  0.972  0.002  0.989-  95 3.10  84 3.15  82 3.17  76 3.17  80 3.22  96 3.28
  73  0.455  0.504  0.238-  69 3.17  65 3.22
  74  0.955  0.496  0.238-  70 3.17  66 3.22
  75  0.455  0.996  0.238-  71 3.17  67 3.22
  76  0.955  0.004  0.238-  72 3.17  68 3.22
  77  0.455  0.496  0.738-  65 3.17  69 3.22
  78  0.955  0.504  0.738-  66 3.17  70 3.22
  79  0.455  0.004  0.738-  67 3.17  71 3.22
  80  0.955  0.996  0.738-  68 3.17  72 3.22
  81  0.477  0.250  0.011-  71 3.15  69 3.15
  82  0.922  0.250  0.013-  72 3.17  70 3.17
  83  0.422  0.750  0.013-  69 3.17  71 3.17
  84  0.977  0.750  0.011-  70 3.15  72 3.15
  85  0.422  0.250  0.513-  67 3.17  65 3.17
  86  0.977  0.250  0.511-  68 3.15  66 3.15
  87  0.477  0.750  0.511-  65 3.15  67 3.15
  88  0.922  0.750  0.513-  66 3.17  68 3.17
  89  0.216  0.532  0.461-  66 3.10  65 3.28
  90  0.716  0.468  0.461-  65 3.10  66 3.28
  91  0.216  0.968  0.461-  68 3.10  67 3.28
  92  0.716  0.032  0.461-  67 3.10  68 3.28
  93  0.216  0.468  0.961-  70 3.10  69 3.28
  94  0.716  0.532  0.961-  69 3.10  70 3.28
  95  0.216  0.032  0.961-  72 3.10  71 3.28
  96  0.716  0.968  0.961-  71 3.10  72 3.28
 
  LATTYP: Found a triclinic cell.
 ALAT       =    17.8238589327
 B/A-ratio  =     0.6989248630
 C/A-ratio  =     1.0156975818
 COS(alpha) =     0.0001355172
 COS(beta)  =     0.5146378593
 COS(gamma) =     0.6988877578
  
  Lattice vectors:
  
 A1 = (  -0.1406063366, -12.4576271275, -12.7466742118)
 A2 = (  -0.0011956322, -12.4575380825,   0.0007464135)
 A3 = ( -12.7162481321,  -0.0020049566, -12.8856194186)


Analysis of symmetry for initial positions (statically):
=====================================================================
 Subroutine PRICEL returns following result:
 
  LATTYP: Found a triclinic cell.
 ALAT       =     8.8524544993
 B/A-ratio  =     1.4072411401
 C/A-ratio  =     1.0225215175
 COS(alpha) =     0.0001355172
 COS(beta)  =     0.5046167836
 COS(gamma) =     0.7037964938
  
  Lattice vectors:
  
 A1 = (   6.2890165300,   6.2297269971,   0.0687261899)
 A2 = (   0.0011956322,  12.4575380825,  -0.0007464135)
 A3 = (   6.3581240661,   0.0010024783,   6.4428097093)
 
   4 primitive cells build up your supercell.
 

 Routine SETGRP: Setting up the symmetry group for a 
 triclinic supercell.


 Subroutine GETGRP returns: Found  1 space group operations
 (whereof  1 operations were pure point group operations)
 out of a pool of  2 trial point group operations.


The static configuration has the point symmetry C_1 .


Analysis of symmetry for dynamics (positions and initial velocities):
=====================================================================
 Subroutine PRICEL returns following result:
 
  LATTYP: Found a triclinic cell.
 ALAT       =     8.8524544993
 B/A-ratio  =     1.4072411401
 C/A-ratio  =     1.0225215175
 COS(alpha) =     0.0001355172
 COS(beta)  =     0.5046167836
 COS(gamma) =     0.7037964938
  
  Lattice vectors:
  
 A1 = (   6.2890165300,   6.2297269971,   0.0687261899)
 A2 = (   0.0011956322,  12.4575380825,  -0.0007464135)
 A3 = (   6.3581240661,   0.0010024783,   6.4428097093)
 
   4 primitive cells build up your supercell.
 

 Routine SETGRP: Setting up the symmetry group for a 
 triclinic supercell.


 Subroutine GETGRP returns: Found  1 space group operations
 (whereof  1 operations were pure point group operations)
 out of a pool of  2 trial point group operations.


The dynamic configuration has the point symmetry C_1 .


Analysis of structural, dynamic, and magnetic symmetry:
=====================================================================
 Subroutine PRICEL returns following result:
 
  LATTYP: Found a triclinic cell.
 ALAT       =     8.8524544993
 B/A-ratio  =     1.4072411401
 C/A-ratio  =     1.0225215175
 COS(alpha) =     0.0001355172
 COS(beta)  =     0.5046167836
 COS(gamma) =     0.7037964938
  
  Lattice vectors:
  
 A1 = (   6.2890165300,   6.2297269971,   0.0687261899)
 A2 = (   0.0011956322,  12.4575380825,  -0.0007464135)
 A3 = (   6.3581240661,   0.0010024783,   6.4428097093)
 
   4 primitive cells build up your supercell.
 

 Routine SETGRP: Setting up the symmetry group for a 
 triclinic supercell.


 Subroutine GETGRP returns: Found  1 space group operations
 (whereof  1 operations were pure point group operations)
 out of a pool of  2 trial point group operations.


The (compounded) configuration has the point symmetry C_1 .


 Subroutine INISYM returns: Found  1 space group operations
 (whereof  1 operations are pure point group operations),
 and found     4 'primitive' translations

 
 
 KPOINTS: Automatic 3x3x3                         

Automatic generation of k-mesh.
Space group operators:
 irot       det(A)        alpha          n_x          n_y          n_z        tau_x        tau_y        tau_z
    1     1.000000     0.000000     1.000000     0.000000     0.000000     0.000000     0.000000     0.000000
 
 Subroutine IBZKPT returns following result:
 ===========================================
 
 Found     27 irreducible k-points:
 
 Following reciprocal coordinates:
            Coordinates               Weight
  0.000000  0.000000  0.000000      1.000000
  0.333333 -0.000000 -0.000000      1.000000
 -0.333333  0.000000  0.000000      1.000000
  0.000000  0.333333 -0.000000      1.000000
  0.333333  0.333333  0.000000      1.000000
 -0.333333  0.333333  0.000000      1.000000
 -0.000000 -0.333333  0.000000      1.000000
  0.333333 -0.333333 -0.000000      1.000000
 -0.333333 -0.333333 -0.000000      1.000000
  0.000000  0.000000  0.333333      1.000000
  0.333333  0.000000  0.333333      1.000000
 -0.333333  0.000000  0.333333      1.000000
  0.000000  0.333333  0.333333      1.000000
  0.333333  0.333333  0.333333      1.000000
 -0.333333  0.333333  0.333333      1.000000
  0.000000 -0.333333  0.333333      1.000000
  0.333333 -0.333333  0.333333      1.000000
 -0.333333 -0.333333  0.333333      1.000000
  0.000000  0.000000 -0.333333      1.000000
  0.333333 -0.000000 -0.333333      1.000000
 -0.333333 -0.000000 -0.333333      1.000000
 -0.000000  0.333333 -0.333333      1.000000
  0.333333  0.333333 -0.333333      1.000000
 -0.333333  0.333333 -0.333333      1.000000
 -0.000000 -0.333333 -0.333333      1.000000
  0.333333 -0.333333 -0.333333      1.000000
 -0.333333 -0.333333 -0.333333      1.000000
 
 Following cartesian coordinates:
            Coordinates               Weight
  0.000000  0.000000  0.000000      1.000000
  0.026507 -0.000003 -0.000290      1.000000
 -0.026507  0.000003  0.000290      1.000000
 -0.000004  0.026758 -0.000000      1.000000
  0.026503  0.026755 -0.000290      1.000000
 -0.026511  0.026760  0.000290      1.000000
  0.000004 -0.026758  0.000000      1.000000
  0.026511 -0.026760 -0.000290      1.000000
 -0.026503 -0.026755  0.000290      1.000000
 -0.000287  0.000002  0.026152      1.000000
  0.026220 -0.000001  0.025862      1.000000
 -0.026794  0.000004  0.026442      1.000000
 -0.000291  0.026759  0.026152      1.000000
  0.026215  0.026757  0.025862      1.000000
 -0.026798  0.026762  0.026442      1.000000
 -0.000283 -0.026756  0.026152      1.000000
  0.026224 -0.026759  0.025862      1.000000
 -0.026790 -0.026753  0.026442      1.000000
  0.000287 -0.000002 -0.026152      1.000000
  0.026794 -0.000004 -0.026442      1.000000
 -0.026220  0.000001 -0.025862      1.000000
  0.000283  0.026756 -0.026152      1.000000
  0.026790  0.026753 -0.026442      1.000000
 -0.026224  0.026759 -0.025862      1.000000
  0.000291 -0.026759 -0.026152      1.000000
  0.026798 -0.026762 -0.026442      1.000000
 -0.026215 -0.026757 -0.025862      1.000000
 


--------------------------------------------------------------------------------------------------------




 Dimension of arrays:
   k-points           NKPTS =     27   k-points in BZ     NKDIM =     27   number of bands    NBANDS=    600
   number of dos      NEDOS =    301   number of ions     NIONS =     96
   non local maximal  LDIM  =      6   non local SUM 2l+1 LMDIM =     18
   total plane-waves  NPLWV = ******
   max r-space proj   IRMAX =      1   max aug-charges    IRDMAX= 314103
   dimension x,y,z NGX =   112 NGY =  108 NGZ =  112
   dimension x,y,z NGXF=   224 NGYF=  216 NGZF=  224
   support grid    NGXF=   448 NGYF=  432 NGZF=  448
   ions per type =               8   8  48   8  24
 NGX,Y,Z   is equivalent  to a cutoff of  14.80, 14.41, 14.61 a.u.
 NGXF,Y,Z  is equivalent  to a cutoff of  29.61, 28.83, 29.21 a.u.


 I would recommend the setting:
   dimension x,y,z NGX =   109 NGY =  107 NGZ =  110
 SYSTEM =  MAPbI3-Cubic                            
 POSCAR =  C N H Pb I                              

 Startparameter for this run:
   NWRITE =      2    write-flag & timer
   PREC   = accura    normal or accurate (medium, high low for compatibility)
   ISTART =      0    job   : 0-new  1-cont  2-samecut
   ICHARG =      2    charge: 1-file 2-atom 10-const
   ISPIN  =      1    spin polarized calculation?
   LNONCOLLINEAR =      T non collinear calculations
   LSORBIT =      T    spin-orbit coupling
   INIWAV =      1    electr: 0-lowe 1-rand  2-diag
   LASPH  =      F    aspherical Exc in radial PAW
   METAGGA=      F    non-selfconsistent MetaGGA calc.

 Electronic Relaxation 1
   ENCUT  =  700.0 eV  51.45 Ry    7.17 a.u.  27.13 26.87 27.50*2*pi/ulx,y,z
   ENINI  =  700.0     initial cutoff
   ENAUG  =  644.9 eV  augmentation charge cutoff
   NELM   =     60;   NELMIN=  2; NELMDL= -5     # of ELM steps 
   EDIFF  = 0.1E-07   stopping-criterion for ELM
   LREAL  =      F    real-space projection
   NLSPLINE    = F    spline interpolate recip. space projectors
   LCOMPAT=      F    compatible to vasp.4.4
   GGA_COMPAT  = T    GGA compatible to vasp.4.4-vasp.4.6
   LMAXPAW     = -100 max onsite density
   LMAXMIX     =    2 max onsite mixed and CHGCAR
   VOSKOWN=      0    Vosko Wilk Nusair interpolation
   ROPT   =    0.00000   0.00000   0.00000   0.00000
   ROPT   =    0.00000
 Ionic relaxation
   EDIFFG = 0.1E-06   stopping-criterion for IOM
   NSW    =      0    number of steps for IOM
   NBLOCK =      1;   KBLOCK =      1    inner block; outer block 
   IBRION =     -1    ionic relax: 0-MD 1-quasi-New 2-CG
   NFREE  =      0    steps in history (QN), initial steepest desc. (CG)
   ISIF   =      2    stress and relaxation
   IWAVPR =     10    prediction:  0-non 1-charg 2-wave 3-comb
   ISYM   =      2    0-nonsym 1-usesym 2-fastsym
   LCORR  =      T    Harris-Foulkes like correction to forces

   POTIM  = 0.5000    time-step for ionic-motion
   TEIN   =    0.0    initial temperature
   TEBEG  =    0.0;   TEEND  =   0.0 temperature during run
   SMASS  =  -3.00    Nose mass-parameter (am)
   estimated Nose-frequenzy (Omega)   =  0.10E-29 period in steps =****** mass=  -0.362E-26a.u.
   SCALEE = 1.0000    scale energy and forces
   NPACO  =    256;   APACO  = 16.0  distance and # of slots for P.C.
   PSTRESS=    0.0 pullay stress

  Mass of Ions in am
   POMASS =  12.01 14.00  1.00207.20126.90
  Ionic Valenz
   ZVAL   =   4.00  5.00  1.00 14.00  7.00
  Atomic Wigner-Seitz radii
   RWIGS  =  -1.00 -1.00 -1.00 -1.00 -1.00
  virtual crystal weights 
   VCA    =   1.00  1.00  1.00  1.00  1.00
   NELECT =     400.0000    total number of electrons
   NUPDOWN=      -1.0000    fix difference up-down

 DOS related values:
   EMIN   =  10.00;   EMAX   =-10.00  energy-range for DOS
   EFERMI =   0.00
   ISMEAR =     0;   SIGMA  =   0.00  broadening in eV -4-tet -1-fermi 0-gaus

 Electronic relaxation 2 (details)
   IALGO  =     38    algorithm
   LDIAG  =      T    sub-space diagonalisation (order eigenvalues)
   LSUBROT=      F    optimize rotation matrix (better conditioning)
   TURBO    =      0    0=normal 1=particle mesh
   IRESTART =      0    0=no restart 2=restart with 2 vectors
   NREBOOT  =      0    no. of reboots
   NMIN     =      0    reboot dimension
   EREF     =   0.00    reference energy to select bands
   IMIX   =      4    mixing-type and parameters
     AMIX     =   0.40;   BMIX     =  1.00
     AMIX_MAG =   1.60;   BMIX_MAG =  1.00
     AMIN     =   0.10
     WC   =   100.;   INIMIX=   1;  MIXPRE=   1;  MAXMIX= -45

 Intra band minimization:
   WEIMIN = 0.0000     energy-eigenvalue tresh-hold
   EBREAK =  0.42E-11  absolut break condition
   DEPER  =   0.30     relativ break condition  

   TIME   =   0.40     timestep for ELM

  volume/ion in A,a.u.               =      20.80       140.38
  Fermi-wavevector in a.u.,A,eV,Ry     =   0.957863  1.810099 12.483376  0.917502
  Thomas-Fermi vector in A             =   2.086919
 
 Write flags
   LWAVE  =      F    write WAVECAR
   LCHARG =      F    write CHGCAR
   LVTOT  =      F    write LOCPOT, total local potential
   LVHAR  =      F    write LOCPOT, Hartree potential only
   LELF   =      F    write electronic localiz. function (ELF)
   LORBIT =      0    0 simple, 1 ext, 2 COOP (PROOUT)


 Dipole corrections
   LMONO  =      F    monopole corrections only (constant potential shift)
   LDIPOL =      F    correct potential (dipole corrections)
   IDIPOL =      0    1-x, 2-y, 3-z, 4-all directions 
   EPSILON=  1.0000000 bulk dielectric constant

 Core level calculations are selected ICORELEVEL =  1
 Exchange correlation treatment:
   GGA     =    PS    GGA type
   LEXCH   =    14    internal setting for exchange type
   VOSKOWN=      0    Vosko Wilk Nusair interpolation
   LHFCALC =     F    Hartree Fock is set to
   LHFONE  =     F    Hartree Fock one center treatment
   AEXX    =    0.0000 exact exchange contribution

 Linear response parameters
   LEPSILON=     F    determine dielectric tensor
   LRPA    =     F    only Hartree local field effects (RPA)
   LNABLA  =     F    use nabla operator in PAW spheres
   LVEL    =     F    velocity operator in full k-point grid
   LINTERFAST=   F  fast interpolation
   KINTER  =     0    interpolate to denser k-point grid
   CSHIFT  =0.1000    complex shift for real part using Kramers Kronig
   OMEGAMAX=  -1.0    maximum frequency
   DEG_THRESHOLD= 0.2000000E-02 threshold for treating states as degnerate
   RTIME   =    0.100 relaxation time in fs

 Orbital magnetization related:
   ORBITALMAG=     F  switch on orbital magnetization
   LCHIMAG   =     F  perturbation theory with respect to B field
   DQ        =  0.001000  dq finite difference perturbation B field



--------------------------------------------------------------------------------------------------------


 Static calculation
 charge density and potential will be updated during run
 non collinear spin polarized calculation
 Variant of blocked Davidson
 Davidson routine will perform the subspace rotation
 perform sub-space diagonalisation
    after iterative eigenvector-optimisation
 modified Broyden-mixing scheme, WC =      100.0
 initial mixing is a Kerker type mixing with AMIX =  0.4000 and BMIX =      1.0000
 Hartree-type preconditioning will be used
 using additional bands          400
 reciprocal scheme for non local part
 use partial core corrections
 calculate Harris-corrections to forces 
   (improved forces if not selfconsistent)
 use gradient corrections 
 use of overlap-Matrix (Vanderbilt PP)
 Gauss-broadening in eV      SIGMA  =   0.00


--------------------------------------------------------------------------------------------------------


  energy-cutoff  :      700.00
  volume of cell :     1996.98
      direct lattice vectors                 reciprocal lattice vectors
    12.576837428  0.001915912  0.138198793     0.079520802 -0.000007684 -0.000869670
     0.001195632 12.457538083 -0.000746413    -0.000012224  0.080272684 -0.000000427
     0.139410704  0.000089045 12.747420625    -0.000862111  0.000004784  0.078456671

  length of vectors
    12.577596840 12.457538162 12.748182927     0.079525558  0.080272685  0.078461408


 
 k-points in units of 2pi/SCALE and weight: Automatic 3x3x3                         
   0.00000000  0.00000000  0.00000000       0.037
   0.02650693 -0.00000256 -0.00028989       0.037
  -0.02650693  0.00000256  0.00028989       0.037
  -0.00000407  0.02675756 -0.00000014       0.037
   0.02650286  0.02675500 -0.00029003       0.037
  -0.02651101  0.02676012  0.00028975       0.037
   0.00000407 -0.02675756  0.00000014       0.037
   0.02651101 -0.02676012 -0.00028975       0.037
  -0.02650286 -0.02675500  0.00029003       0.037
  -0.00028737  0.00000159  0.02615222       0.037
   0.02621956 -0.00000097  0.02586233       0.037
  -0.02679430  0.00000416  0.02644211       0.037
  -0.00029144  0.02675916  0.02615208       0.037
   0.02621549  0.02675659  0.02586219       0.037
  -0.02679838  0.02676172  0.02644197       0.037
  -0.00028330 -0.02675597  0.02615237       0.037
   0.02622364 -0.02675853  0.02586248       0.037
  -0.02679023 -0.02675341  0.02644226       0.037
   0.00028737 -0.00000159 -0.02615222       0.037
   0.02679430 -0.00000416 -0.02644211       0.037
  -0.02621956  0.00000097 -0.02586233       0.037
   0.00028330  0.02675597 -0.02615237       0.037
   0.02679023  0.02675341 -0.02644226       0.037
  -0.02622364  0.02675853 -0.02586248       0.037
   0.00029144 -0.02675916 -0.02615208       0.037
   0.02679838 -0.02676172 -0.02644197       0.037
  -0.02621549 -0.02675659 -0.02586219       0.037
 
 k-points in reciprocal lattice and weights: Automatic 3x3x3                         
   0.00000000  0.00000000  0.00000000       0.037
   0.33333333 -0.00000000 -0.00000000       0.037
  -0.33333333  0.00000000  0.00000000       0.037
   0.00000000  0.33333333 -0.00000000       0.037
   0.33333333  0.33333333  0.00000000       0.037
  -0.33333333  0.33333333  0.00000000       0.037
  -0.00000000 -0.33333333  0.00000000       0.037
   0.33333333 -0.33333333 -0.00000000       0.037
  -0.33333333 -0.33333333 -0.00000000       0.037
   0.00000000  0.00000000  0.33333333       0.037
   0.33333333  0.00000000  0.33333333       0.037
  -0.33333333  0.00000000  0.33333333       0.037
   0.00000000  0.33333333  0.33333333       0.037
   0.33333333  0.33333333  0.33333333       0.037
  -0.33333333  0.33333333  0.33333333       0.037
   0.00000000 -0.33333333  0.33333333       0.037
   0.33333333 -0.33333333  0.33333333       0.037
  -0.33333333 -0.33333333  0.33333333       0.037
   0.00000000  0.00000000 -0.33333333       0.037
   0.33333333 -0.00000000 -0.33333333       0.037
  -0.33333333 -0.00000000 -0.33333333       0.037
  -0.00000000  0.33333333 -0.33333333       0.037
   0.33333333  0.33333333 -0.33333333       0.037
  -0.33333333  0.33333333 -0.33333333       0.037
  -0.00000000 -0.33333333 -0.33333333       0.037
   0.33333333 -0.33333333 -0.33333333       0.037
  -0.33333333 -0.33333333 -0.33333333       0.037
 
 position of ions in fractional coordinates (direct lattice) 
   0.19771997  0.24985111  0.22858729
   0.69626830  0.24996544  0.22924342
   0.19626830  0.74996544  0.22924342
   0.69771997  0.74985111  0.22858729
   0.19626830  0.24996544  0.72924342
   0.69771997  0.24985111  0.72858729
   0.19771997  0.74985111  0.72858729
   0.69626830  0.74996544  0.72924342
   0.31124839  0.24996692  0.26009769
   0.79782605  0.25004037  0.28767090
   0.29782605  0.75004037  0.28767090
   0.81124839  0.74996692  0.26009769
   0.29782605  0.25004037  0.78767090
   0.81124839  0.24996692  0.76009769
   0.31124839  0.74996692  0.76009769
   0.79782605  0.75004037  0.78767090
   0.19466400  0.24976421  0.14176889
   0.71548633  0.24987798  0.14400837
   0.21548633  0.74987798  0.14400837
   0.69466400  0.74976421  0.14176889
   0.21548633  0.24987798  0.64400837
   0.69466400  0.24976421  0.64176889
   0.19466400  0.74976421  0.64176889
   0.71548633  0.74987798  0.64400837
   0.15813486  0.32221276  0.26025196
   0.65054076  0.32249161  0.25077868
   0.15054076  0.82249161  0.25077868
   0.65813486  0.82221276  0.26025196
   0.15054076  0.32249161  0.75077868
   0.65813486  0.32221276  0.76025196
   0.15813486  0.82221276  0.76025196
   0.65054076  0.82249161  0.75077868
   0.15828808  0.17748188  0.26037588
   0.65059759  0.17747027  0.25092553
   0.15059759  0.67747027  0.25092553
   0.65828808  0.67748188  0.26037588
   0.15059759  0.17747027  0.75092553
   0.65828808  0.17748188  0.76037588
   0.15828808  0.67748188  0.76037588
   0.65059759  0.67747027  0.75092553
   0.35218909  0.31776597  0.23193604
   0.84408007  0.31798259  0.26957694
   0.34408007  0.81798259  0.26957694
   0.85218909  0.81776597  0.23193604
   0.34408007  0.31798259  0.76957694
   0.85218909  0.31776597  0.73193604
   0.35218909  0.81776597  0.73193604
   0.84408007  0.81798259  0.76957694
   0.35231723  0.18218001  0.23202005
   0.84409337  0.18202976  0.26976175
   0.34409337  0.68202976  0.26976175
   0.85231723  0.68218001  0.23202005
   0.34409337  0.18202976  0.76976175
   0.85231723  0.18218001  0.73202005
   0.35231723  0.68218001  0.73202005
   0.84409337  0.68202976  0.76976175
   0.32133032  0.25001792  0.34224210
   0.78500982  0.25016913  0.36897638
   0.28500982  0.75016913  0.36897638
   0.82133032  0.75001792  0.34224210
   0.28500982  0.25016913  0.86897638
   0.82133032  0.25001792  0.84224210
   0.32133032  0.75001792  0.84224210
   0.78500982  0.75016913  0.86897638
   0.47243829  0.49819638  0.48880668
   0.97244526  0.50178321  0.48881622
   0.47244526  0.00178321  0.48881622
   0.97243829  0.99819638  0.48880668
   0.47244526  0.50178321  0.98881622
   0.97243829  0.49819638  0.98880668
   0.47243829  0.99819638  0.98880668
   0.97244526  0.00178321  0.98881622
   0.45470180  0.50370353  0.23757486
   0.95478555  0.49627857  0.23757062
   0.45478555  0.99627857  0.23757062
   0.95470180  0.00370353  0.23757486
   0.45478555  0.49627857  0.73757062
   0.95470180  0.50370353  0.73757486
   0.45470180  0.00370353  0.73757486
   0.95478555  0.99627857  0.73757062
   0.47716186  0.24997240  0.01060245
   0.92210902  0.24998562  0.01306199
   0.42210902  0.74998562  0.01306199
   0.97716186  0.74997240  0.01060245
   0.42210902  0.24998562  0.51306199
   0.97716186  0.24997240  0.51060245
   0.47716186  0.74997240  0.51060245
   0.92210902  0.74998562  0.51306199
   0.21616462  0.53157316  0.46127267
   0.71617826  0.46842171  0.46120674
   0.21617826  0.96842171  0.46120674
   0.71616462  0.03157316  0.46127267
   0.21617826  0.46842171  0.96120674
   0.71616462  0.53157316  0.96127267
   0.21616462  0.03157316  0.96127267
   0.71617826  0.96842171  0.96120674
 
 position of ions in cartesian coordinates  (Angst):
   2.51885811  3.11292883  2.94103644
   8.78911105  3.11530845  3.01829920
   2.50129016  9.34311953  2.94882660
   8.80787464  9.34265583  3.00976263
   2.57039769  3.11439501  9.32291012
   8.87698218  3.11393131  9.38384615
   2.58916128  9.34174240  9.31437355
   8.85941422  9.34412201  9.39163631
   3.95107964  3.11459185  3.35840224
  10.07453189  3.11644156  3.77713395
   3.78671099  9.34425264  3.70766135
  10.24009617  9.34431885  3.42712843
   3.85581853  3.11552812 10.08174487
  10.30920371  3.11559433  9.80121195
   4.02138281  9.34340542  9.73173935
  10.14483506  9.34525512 10.15047106
   2.46832021  3.11183279  1.83390353
   9.01893038  3.11424806  1.93442805
   2.73110948  9.34205915  1.86495544
   8.75733674  9.34155979  1.90262972
   2.80021701  3.11333463  8.23903896
   8.82644428  3.11283527  8.27671323
   2.53862338  9.34064636  8.20724063
   9.08923354  9.34306163  8.30776515
   2.02550352  4.01430387  3.33915475
   8.21709217  4.01872027  3.28644453
   1.92927127 10.24653135  3.21697193
   8.31452005 10.24403087  3.40788094
   1.99837881  4.01780683  9.59105545
   8.38362759  4.01530635  9.78196446
   2.09580669 10.24311743  9.71249186
   8.28739534 10.24753383  9.65978164
   2.02727478  2.21131372  3.34086363
   8.21765404  2.21211145  3.28843263
   1.92983314  8.43992253  3.21896003
   8.31629131  8.44104072  3.40958982
   1.99894068  2.21119801  9.59304355
   8.38539884  2.21231620  9.78367334
   2.09757794  8.44012729  9.71420074
   8.28795721  8.44092501  9.66176974
   4.46213921  3.95927712  3.00502119
  10.65381987  3.96292145  3.55282417
   4.36599897 10.19073253  3.48335156
  10.75115574 10.18900412  3.07374738
   4.43510650  3.96200802  9.85743508
  10.82026328  3.96027960  9.44783089
   4.53244238 10.18809069  9.37835829
  10.72412303 10.19173501  9.92616127
   4.46360046  2.27021011  3.00621096
  10.65385037  2.26928392  3.55528335
   4.36602947  8.49709501  3.48581075
  10.75261699  8.49993711  3.07493715
   4.43513701  2.26837049  9.85989427
  10.82172453  2.27121259  9.44902067
   4.53390363  8.49902368  9.37954807
  10.72415354  8.49809749  9.92862046
   4.08933037  3.11525381  4.40692491
   9.92467929  3.11802831  4.81179785
   3.63685840  9.34583939  4.74232525
  10.37834690  9.34498081  4.47565110
   3.70596593  3.11711488 11.11640877
  10.44745444  3.11625629 10.84973462
   4.15963354  9.34406738 10.78026202
   9.99498246  9.34684187 11.18513496
   6.01052015  6.20724902  6.29594286
  12.29903209  6.25289013  6.36516215
   6.01001556  0.02316313  6.29643596
  12.29953668 12.43697601  6.36466905
   6.08031873  6.25197669 12.66977307
  12.36864422  6.20825150 12.73875257
   6.08082332 12.43606258 12.66927996
  12.36813962  0.02416561 12.73924567
   5.75243337  6.27579817  3.09092999
  12.04189585  6.18425967  3.15999241
   5.75407495 12.41207076  3.09051980
  12.04025427  0.04798709  3.16040259
   5.82318249  6.18334624  9.46460332
  12.11055744  6.27680065  9.53373970
   5.82154091  0.04707365  9.46501351
  12.11219902 12.41307323  9.53332951
   6.00296414  3.11495582  0.20091048
  11.59933506  3.11597326  0.29375440
   5.31151417  9.34378434  0.22428180
  12.29198067  9.34468281  0.26963667
   5.38062170  3.11505982  6.59836532
  12.36108821  3.11595830  6.64372019
   6.07326731  9.34376938  6.57424759
  11.66963823  9.34478682  6.66709151
   2.78360916  6.62254814  5.90951364
   9.07211476  5.83679450  5.97782159
   2.78429386 12.06460559  5.90834899
   9.07143005  0.39473705  5.97898624
   2.85340140  5.83588107 12.28243251
   9.14173322  6.62355061 12.35232335
   2.85271669  0.39382362 12.28359716
   9.14241793 12.06560807 12.35115870
 
 Euler angles ALPHA=     0.0000000  BETA=     0.0000000

 transformation matrix from SAXIS to cartesian coordinates
 ---------------------------------------------------------
     1.0000000 m_x     0.0000000 m_y     0.0000000 m_z
     0.0000000 m_x     1.0000000 m_y     0.0000000 m_z
     0.0000000 m_x     0.0000000 m_y     1.0000000 m_z

 transformation matrix from cartesian coordinates to SAXIS
 ---------------------------------------------------------
     1.0000000 m_x     0.0000000 m_y     0.0000000 m_z
     0.0000000 m_x     1.0000000 m_y     0.0000000 m_z
     0.0000000 m_x     0.0000000 m_y     1.0000000 m_z




--------------------------------------------------------------------------------------------------------


 k-point  1 :   0.0000 0.0000 0.0000  plane waves:  168014
 k-point  2 :   0.3333-0.0000-0.0000  plane waves:  168006
 k-point  3 :  -0.3333 0.0000 0.0000  plane waves:  168006
 k-point  4 :   0.0000 0.3333-0.0000  plane waves:  167990
 k-point  5 :   0.3333 0.3333 0.0000  plane waves:  168036
 k-point  6 :  -0.3333 0.3333 0.0000  plane waves:  168038
 k-point  7 :  -0.0000-0.3333 0.0000  plane waves:  167990
 k-point  8 :   0.3333-0.3333-0.0000  plane waves:  168038
 k-point  9 :  -0.3333-0.3333-0.0000  plane waves:  168036
 k-point 10 :   0.0000 0.0000 0.3333  plane waves:  167920
 k-point 11 :   0.3333 0.0000 0.3333  plane waves:  167874
 k-point 12 :  -0.3333 0.0000 0.3333  plane waves:  167964
 k-point 13 :   0.0000 0.3333 0.3333  plane waves:  167968
 k-point 14 :   0.3333 0.3333 0.3333  plane waves:  168024
 k-point 15 :  -0.3333 0.3333 0.3333  plane waves:  167940
 k-point 16 :   0.0000-0.3333 0.3333  plane waves:  167954
 k-point 17 :   0.3333-0.3333 0.3333  plane waves:  168026
 k-point 18 :  -0.3333-0.3333 0.3333  plane waves:  167946
 k-point 19 :   0.0000 0.0000-0.3333  plane waves:  167920
 k-point 20 :   0.3333-0.0000-0.3333  plane waves:  167964
 k-point 21 :  -0.3333-0.0000-0.3333  plane waves:  167874
 k-point 22 :  -0.0000 0.3333-0.3333  plane waves:  167954
 k-point 23 :   0.3333 0.3333-0.3333  plane waves:  167946
 k-point 24 :  -0.3333 0.3333-0.3333  plane waves:  168026
 k-point 25 :  -0.0000-0.3333-0.3333  plane waves:  167968
 k-point 26 :   0.3333-0.3333-0.3333  plane waves:  167940
 k-point 27 :  -0.3333-0.3333-0.3333  plane waves:  168024

 maximum and minimum number of plane-waves per node :      7122     6820

 maximum number of plane-waves:    168038
 maximum index in each direction: 
   IXMAX=   27   IYMAX=   27   IZMAX=   27
   IXMIN=  -27   IYMIN=  -27   IZMIN=  -27

 NGX is ok and might be reduce to 110
 WARNING: aliasing errors must be expected set NGY to 110 to avoid them
 NGZ is ok and might be reduce to 110
 aliasing errors are usually negligible using standard VASP settings
 and one can safely disregard these warnings

 parallel 3D FFT for wavefunctions:
    minimum data exchange during FFTs selected (reduces bandwidth)
 parallel 3D FFT for charge:
    minimum data exchange during FFTs selected (reduces bandwidth)


 total amount of memory used by VASP on root node   392927. kBytes
========================================================================

   base      :      30000. kBytes
   nonl-proj :      73667. kBytes
   fftplans  :      22714. kBytes
   grid      :      35610. kBytes
   one-center:        248. kBytes
   wavefun   :     230688. kBytes
 
     INWAV:  cpu time    0.0000: real time    0.0000
 Broyden mixing: mesh for mixing (old mesh)
   NGX = 55   NGY = 53   NGZ = 55
  (NGX  =224   NGY  =216   NGZ  =224)
  gives a total of 160325 points

 initial charge density was supplied:
 charge density of overlapping atoms calculated
 number of electron     400.0000000 magnetization      96.0000000     96.0000000     96.0000000
 keeping initial charge density in first step


--------------------------------------------------------------------------------------------------------


 Maximum index for augmentation-charges         5377 (set IRDMAX)


--------------------------------------------------------------------------------------------------------


 First call to EWALD:  gamma=   0.141
 Maximum number of real-space cells 3x 3x 3
 Maximum number of reciprocal cells 3x 3x 3

 FEWALD executed in parallel
    FEWALD:  cpu time    0.0040: real time    0.0040


----------------------------------------- Iteration    1(   1)  ---------------------------------------


    POTLOK:  cpu time    0.6360: real time    0.6344
    SETDIJ:  cpu time    2.1641: real time    2.1653
     EDDAV:  cpu time  239.9710: real time  240.2093
       DOS:  cpu time    0.0120: real time    0.0098
    --------------------------------------------
      LOOP:  cpu time  242.7832: real time  243.0457

 eigenvalue-minimisations  : 32544
 total energy-change (2. order) : 0.4221651E+04  (-0.1928798E+05)
 number of electron     400.0000000 magnetization      96.0000000     96.0000000     96.0000000
 augmentation part      400.0000000 magnetization      96.0000000     96.0000000     96.0000000

 Free energy of the ion-electron system (eV)
  ---------------------------------------------------
  alpha Z        PSCENC =       370.05370877
  Ewald energy   TEWEN  =    -15558.20605741
  -Hartree energ DENC   =     -8099.27625045
  -exchange      EXHF   =         0.00000000
  -V(xc)+E(xc)   XCENC  =       672.30237792
  PAW double counting   =     20172.90621935   -19413.33347658
  entropy T*S    EENTRO =        -0.00004263
  eigenvalues    EBANDS =      1328.19798697
  atomic energy  EATOM  =     24749.00668030
  Solvation  Ediel_sol  =         0.00000000
  ---------------------------------------------------
  free energy    TOTEN  =      4221.65114624 eV

  energy without entropy =     4221.65118887  energy(sigma->0) =     4221.65116755


--------------------------------------------------------------------------------------------------------




----------------------------------------- Iteration    1(   2)  ---------------------------------------


     EDDAV:  cpu time  256.1000: real time  256.2666
       DOS:  cpu time    0.0080: real time    0.0076
    --------------------------------------------
      LOOP:  cpu time  256.1080: real time  256.7387

 eigenvalue-minimisations  : 35552
 total energy-change (2. order) :-0.3378871E+04  (-0.3129861E+04)
 number of electron     400.0000000 magnetization      96.0000000     96.0000000     96.0000000
 augmentation part      400.0000000 magnetization      96.0000000     96.0000000     96.0000000

 Free energy of the ion-electron system (eV)
  ---------------------------------------------------
  alpha Z        PSCENC =       370.05370877
  Ewald energy   TEWEN  =    -15558.20605741
  -Hartree energ DENC   =     -8099.27625045
  -exchange      EXHF   =         0.00000000
  -V(xc)+E(xc)   XCENC  =       672.30237792
  PAW double counting   =     20172.90621935   -19413.33347658
  entropy T*S    EENTRO =        -0.00003626
  eigenvalues    EBANDS =     -2050.67257148
  atomic energy  EATOM  =     24749.00668030
  Solvation  Ediel_sol  =         0.00000000
  ---------------------------------------------------
  free energy    TOTEN  =       842.78059415 eV

  energy without entropy =      842.78063041  energy(sigma->0) =      842.78061228


--------------------------------------------------------------------------------------------------------




----------------------------------------- Iteration    1(   3)  ---------------------------------------


     EDDAV:  cpu time  302.3669: real time  302.5647
       DOS:  cpu time    0.0040: real time    0.0069
    --------------------------------------------
      LOOP:  cpu time  302.3749: real time  303.0639

 eigenvalue-minimisations  : 43960
 total energy-change (2. order) :-0.6097112E+03  (-0.5893940E+03)
 number of electron     400.0000000 magnetization      96.0000000     96.0000000     96.0000000
 augmentation part      400.0000000 magnetization      96.0000000     96.0000000     96.0000000

 Free energy of the ion-electron system (eV)
  ---------------------------------------------------
  alpha Z        PSCENC =       370.05370877
  Ewald energy   TEWEN  =    -15558.20605741
  -Hartree energ DENC   =     -8099.27625045
  -exchange      EXHF   =         0.00000000
  -V(xc)+E(xc)   XCENC  =       672.30237792
  PAW double counting   =     20172.90621935   -19413.33347658
  entropy T*S    EENTRO =        -0.00001816
  eigenvalues    EBANDS =     -2660.38378531
  atomic energy  EATOM  =     24749.00668030
  Solvation  Ediel_sol  =         0.00000000
  ---------------------------------------------------
  free energy    TOTEN  =       233.06939841 eV

  energy without entropy =      233.06941658  energy(sigma->0) =      233.06940750


--------------------------------------------------------------------------------------------------------




----------------------------------------- Iteration    1(   4)  ---------------------------------------


     EDDAV:  cpu time  303.2069: real time  303.4030
       DOS:  cpu time    0.0080: real time    0.0099
    --------------------------------------------
      LOOP:  cpu time  303.2190: real time  303.4400

 eigenvalue-minimisations  : 44096
 total energy-change (2. order) :-0.4585370E+02  (-0.4476358E+02)
 number of electron     400.0000000 magnetization      96.0000000     96.0000000     96.0000000
 augmentation part      400.0000000 magnetization      96.0000000     96.0000000     96.0000000

 Free energy of the ion-electron system (eV)
  ---------------------------------------------------
  alpha Z        PSCENC =       370.05370877
  Ewald energy   TEWEN  =    -15558.20605741
  -Hartree energ DENC   =     -8099.27625045
  -exchange      EXHF   =         0.00000000
  -V(xc)+E(xc)   XCENC  =       672.30237792
  PAW double counting   =     20172.90621935   -19413.33347658
  entropy T*S    EENTRO =        -0.00008311
  eigenvalues    EBANDS =     -2706.23741662
  atomic energy  EATOM  =     24749.00668030
  Solvation  Ediel_sol  =         0.00000000
  ---------------------------------------------------
  free energy    TOTEN  =       187.21570216 eV

  energy without entropy =      187.21578527  energy(sigma->0) =      187.21574372


--------------------------------------------------------------------------------------------------------




----------------------------------------- Iteration    1(   5)  ---------------------------------------


     EDDAV:  cpu time  337.6131: real time  337.8388
       DOS:  cpu time    0.0120: real time    0.0084
    CHARGE:  cpu time   11.7167: real time   11.7251
    MIXING:  cpu time    0.0160: real time    0.0152
    --------------------------------------------
      LOOP:  cpu time  349.3618: real time  349.7811

 eigenvalue-minimisations  : 50496
 total energy-change (2. order) :-0.2210635E+01  (-0.2201631E+01)
 number of electron     400.0000000 magnetization      67.1942454     67.2028003     67.2052669
 augmentation part        6.9211956 magnetization      63.2665321     63.2438904     63.2382985

 Broyden mixing:
  rms(total) = 0.97592E+01    rms(broyden)= 0.97591E+01
  rms(prec ) = 0.10255E+02
  weight for this iteration     100.00

 Free energy of the ion-electron system (eV)
  ---------------------------------------------------
  alpha Z        PSCENC =       370.05370877
  Ewald energy   TEWEN  =    -15558.20605741
  -Hartree energ DENC   =     -8099.27625045
  -exchange      EXHF   =         0.00000000
  -V(xc)+E(xc)   XCENC  =       672.30237792
  PAW double counting   =     20172.90621935   -19413.33347658
  entropy T*S    EENTRO =        -0.00003288
  eigenvalues    EBANDS =     -2708.44810212
  atomic energy  EATOM  =     24749.00668030
  Solvation  Ediel_sol  =         0.00000000
  ---------------------------------------------------
  free energy    TOTEN  =       185.00506690 eV

  energy without entropy =      185.00509977  energy(sigma->0) =      185.00508333


--------------------------------------------------------------------------------------------------------




----------------------------------------- Iteration    1(   6)  ---------------------------------------


    POTLOK:  cpu time    0.5800: real time    0.5810
    SETDIJ:  cpu time    2.1321: real time    2.1318
     EDDAV:  cpu time  263.6925: real time  263.8678
       DOS:  cpu time    0.0080: real time    0.0078
    CHARGE:  cpu time   11.8727: real time   11.8794
    MIXING:  cpu time    0.0160: real time    0.0157
    --------------------------------------------
      LOOP:  cpu time  278.3014: real time  278.5847

 eigenvalue-minimisations  : 37016
 total energy-change (2. order) :-0.1301134E+03  (-0.1514446E+03)
 number of electron     400.0000000 magnetization      50.3664950     50.3710087     50.3740775
 augmentation part        5.9806732 magnetization      51.2197887     51.2313810     51.2287222

 Broyden mixing:
  rms(total) = 0.48755E+01    rms(broyden)= 0.48753E+01
  rms(prec ) = 0.50611E+01
  weight for this iteration     100.00

 eigenvalues of (default mixing * dielectric matrix)
  average eigenvalue GAMMA=   0.7574
  0.7574

 Free energy of the ion-electron system (eV)
  ---------------------------------------------------
  alpha Z        PSCENC =       370.05370877
  Ewald energy   TEWEN  =    -15558.20605741
  -Hartree energ DENC   =     -8452.44226223
  -exchange      EXHF   =         0.00000000
  -V(xc)+E(xc)   XCENC  =       688.47133294
  PAW double counting   =     24161.48795808   -23424.64172818
  entropy T*S    EENTRO =        -0.00001997
  eigenvalues    EBANDS =     -2478.83797524
  atomic energy  EATOM  =     24749.00668030
  Solvation  Ediel_sol  =         0.00000000
  ---------------------------------------------------
  free energy    TOTEN  =        54.89163707 eV

  energy without entropy =       54.89165704  energy(sigma->0) =       54.89164705


--------------------------------------------------------------------------------------------------------




----------------------------------------- Iteration    1(   7)  ---------------------------------------


    POTLOK:  cpu time    0.5880: real time    0.5884
    SETDIJ:  cpu time    2.1241: real time    2.1256
     EDDAV:  cpu time  274.7772: real time  274.9587
       DOS:  cpu time    0.0080: real time    0.0086
    CHARGE:  cpu time   11.8927: real time   11.8985
    MIXING:  cpu time    0.0160: real time    0.0146
    --------------------------------------------
      LOOP:  cpu time  289.4061: real time  290.1631

 eigenvalue-minimisations  : 38960
 total energy-change (2. order) :-0.1487448E+03  (-0.1597848E+02)
 number of electron     400.0000000 magnetization      34.4499397     34.4508714     34.4567465
 augmentation part        5.5998963 magnetization      35.5210335     35.5314845     35.5224091

 Broyden mixing:
  rms(total) = 0.28378E+01    rms(broyden)= 0.28378E+01
  rms(prec ) = 0.29937E+01
  weight for this iteration     100.00

 eigenvalues of (default mixing * dielectric matrix)
  average eigenvalue GAMMA=   0.8387
  0.8387  0.8387

 Free energy of the ion-electron system (eV)
  ---------------------------------------------------
  alpha Z        PSCENC =       370.05370877
  Ewald energy   TEWEN  =    -15558.20605741
  -Hartree energ DENC   =     -8500.98626942
  -exchange      EXHF   =         0.00000000
  -V(xc)+E(xc)   XCENC  =       591.44533651
  PAW double counting   =     26591.24674587   -25854.30885364
  entropy T*S    EENTRO =        -0.00002244
  eigenvalues    EBANDS =     -2482.10443279
  atomic energy  EATOM  =     24749.00668030
  Solvation  Ediel_sol  =         0.00000000
  ---------------------------------------------------
  free energy    TOTEN  =       -93.85316426 eV

  energy without entropy =      -93.85314182  energy(sigma->0) =      -93.85315304


--------------------------------------------------------------------------------------------------------




----------------------------------------- Iteration    1(   8)  ---------------------------------------


    POTLOK:  cpu time    0.5880: real time    0.5889
    SETDIJ:  cpu time    2.1481: real time    2.1472
     EDDAV:  cpu time  267.3527: real time  267.5286
       DOS:  cpu time    0.0040: real time    0.0049
    CHARGE:  cpu time   11.8887: real time   11.8956
    MIXING:  cpu time    0.0160: real time    0.0156
    --------------------------------------------
      LOOP:  cpu time  281.9976: real time  282.3104

 eigenvalue-minimisations  : 37608
 total energy-change (2. order) :-0.1078374E+03  (-0.6532199E+01)
 number of electron     400.0000000 magnetization      16.0562804     16.0497423     16.0571647
 augmentation part        6.6546979 magnetization      17.2482529     17.2565606     17.2568102

 Broyden mixing:
  rms(total) = 0.18417E+01    rms(broyden)= 0.18417E+01
  rms(prec ) = 0.18976E+01
  weight for this iteration     100.00

 eigenvalues of (default mixing * dielectric matrix)
  average eigenvalue GAMMA=   1.0032
  1.4000  0.9792  0.6304

 Free energy of the ion-electron system (eV)
  ---------------------------------------------------
  alpha Z        PSCENC =       370.05370877
  Ewald energy   TEWEN  =    -15558.20605741
  -Hartree energ DENC   =     -8534.55260282
  -exchange      EXHF   =         0.00000000
  -V(xc)+E(xc)   XCENC  =       529.08877392
  PAW double counting   =     28543.30789256   -27808.20616746
  entropy T*S    EENTRO =         0.00000000
  eigenvalues    EBANDS =     -2492.18276538
  atomic energy  EATOM  =     24749.00668030
  Solvation  Ediel_sol  =         0.00000000
  ---------------------------------------------------
  free energy    TOTEN  =      -201.69053752 eV

  energy without entropy =     -201.69053752  energy(sigma->0) =     -201.69053752


--------------------------------------------------------------------------------------------------------




----------------------------------------- Iteration    1(   9)  ---------------------------------------


    POTLOK:  cpu time    0.5840: real time    0.5824
    SETDIJ:  cpu time    2.1281: real time    2.1296
     EDDAV:  cpu time  261.8764: real time  262.0477
       DOS:  cpu time    0.0040: real time    0.0041
    CHARGE:  cpu time   11.9087: real time   11.9181
    MIXING:  cpu time    0.0160: real time    0.0157
    --------------------------------------------
      LOOP:  cpu time  276.5173: real time  276.7371

 eigenvalue-minimisations  : 36688
 total energy-change (2. order) :-0.1312553E+03  (-0.1219119E+02)
 number of electron     400.0000000 magnetization      10.4148878     10.4059437     10.4122812
 augmentation part        7.9163341 magnetization      11.2352119     11.2452042     11.2479116

 Broyden mixing:
  rms(total) = 0.92329E+00    rms(broyden)= 0.92328E+00
  rms(prec ) = 0.97643E+00
  weight for this iteration     100.00

 eigenvalues of (default mixing * dielectric matrix)
  average eigenvalue GAMMA=   1.0785
  1.8156  1.1097  0.6943  0.6943

 Free energy of the ion-electron system (eV)
  ---------------------------------------------------
  alpha Z        PSCENC =       370.05370877
  Ewald energy   TEWEN  =    -15558.20605741
  -Hartree energ DENC   =     -8565.01010139
  -exchange      EXHF   =         0.00000000
  -V(xc)+E(xc)   XCENC  =       463.88686051
  PAW double counting   =     30551.48850338   -29817.26549719
  entropy T*S    EENTRO =         0.00000000
  eigenvalues    EBANDS =     -2526.89996046
  atomic energy  EATOM  =     24749.00668030
  Solvation  Ediel_sol  =         0.00000000
  ---------------------------------------------------
  free energy    TOTEN  =      -332.94586349 eV

  energy without entropy =     -332.94586349  energy(sigma->0) =     -332.94586349


--------------------------------------------------------------------------------------------------------




----------------------------------------- Iteration    1(  10)  ---------------------------------------


    POTLOK:  cpu time    0.5800: real time    0.5782
    SETDIJ:  cpu time    2.1401: real time    2.1445
     EDDAV:  cpu time  264.4405: real time  264.6107
       DOS:  cpu time    0.0040: real time    0.0042
    CHARGE:  cpu time   11.9047: real time   11.9150
    MIXING:  cpu time    0.0160: real time    0.0160
    --------------------------------------------
      LOOP:  cpu time  279.0894: real time  279.2810

 eigenvalue-minimisations  : 37336
 total energy-change (2. order) :-0.4800880E+02  (-0.4737541E+01)
 number of electron     400.0000000 magnetization       6.0896078      6.0823537      6.0860285
 augmentation part        8.2045554 magnetization       6.6231240      6.6220553      6.6253914

 Broyden mixing:
  rms(total) = 0.66256E+00    rms(broyden)= 0.66256E+00
  rms(prec ) = 0.73451E+00
  weight for this iteration     100.00

 eigenvalues of (default mixing * dielectric matrix)
  average eigenvalue GAMMA=   1.1388
  1.7072  1.7072  0.8324  0.8324  0.6147

 Free energy of the ion-electron system (eV)
  ---------------------------------------------------
  alpha Z        PSCENC =       370.05370877
  Ewald energy   TEWEN  =    -15558.20605741
  -Hartree energ DENC   =     -8551.64622298
  -exchange      EXHF   =         0.00000000
  -V(xc)+E(xc)   XCENC  =       442.54242804
  PAW double counting   =     30906.71570867   -30170.94500683
  entropy T*S    EENTRO =        -0.00000000
  eigenvalues    EBANDS =     -2568.47590513
  atomic energy  EATOM  =     24749.00668030
  Solvation  Ediel_sol  =         0.00000000
  ---------------------------------------------------
  free energy    TOTEN  =      -380.95466657 eV

  energy without entropy =     -380.95466657  energy(sigma->0) =     -380.95466657


--------------------------------------------------------------------------------------------------------




----------------------------------------- Iteration    1(  11)  ---------------------------------------


    POTLOK:  cpu time    0.5800: real time    0.5823
    SETDIJ:  cpu time    2.1321: real time    2.1338
     EDDAV:  cpu time  266.3006: real time  266.4805
       DOS:  cpu time    0.0040: real time    0.0037
    CHARGE:  cpu time   11.9367: real time   11.9426
    MIXING:  cpu time    0.0160: real time    0.0175
    --------------------------------------------
      LOOP:  cpu time  280.9776: real time  281.2023

 eigenvalue-minimisations  : 37704
 total energy-change (2. order) :-0.2961101E+02  (-0.4100251E+01)
 number of electron     400.0000000 magnetization       3.1426522      3.1378616      3.1399912
 augmentation part        8.0820984 magnetization       3.3619128      3.3590385      3.3603296

 Broyden mixing:
  rms(total) = 0.37791E+00    rms(broyden)= 0.37791E+00
  rms(prec ) = 0.43189E+00
  weight for this iteration     100.00

 eigenvalues of (default mixing * dielectric matrix)
  average eigenvalue GAMMA=   1.2103
  2.0759  2.0759  0.9364  0.9364  0.6608  0.5766

 Free energy of the ion-electron system (eV)
  ---------------------------------------------------
  alpha Z        PSCENC =       370.05370877
  Ewald energy   TEWEN  =    -15558.20605741
  -Hartree energ DENC   =     -8499.61705623
  -exchange      EXHF   =         0.00000000
  -V(xc)+E(xc)   XCENC  =       427.82963480
  PAW double counting   =     30885.28327946   -30146.16359038
  entropy T*S    EENTRO =         0.00000000
  eigenvalues    EBANDS =     -2638.75227387
  atomic energy  EATOM  =     24749.00668030
  Solvation  Ediel_sol  =         0.00000000
  ---------------------------------------------------
  free energy    TOTEN  =      -410.56567457 eV

  energy without entropy =     -410.56567457  energy(sigma->0) =     -410.56567457


--------------------------------------------------------------------------------------------------------




----------------------------------------- Iteration    1(  12)  ---------------------------------------


    POTLOK:  cpu time    0.5800: real time    0.5789
    SETDIJ:  cpu time    2.1241: real time    2.1257
     EDDAV:  cpu time  286.4179: real time  286.6088
       DOS:  cpu time    0.0040: real time    0.0040
    CHARGE:  cpu time   11.9287: real time   11.9351
    MIXING:  cpu time    0.0160: real time    0.0165
    --------------------------------------------
      LOOP:  cpu time  301.0748: real time  301.3831

 eigenvalue-minimisations  : 41448
 total energy-change (2. order) :-0.1059321E+02  (-0.1645891E+01)
 number of electron     400.0000000 magnetization       2.5261590      2.5223418      2.5242152
 augmentation part        7.8940508 magnetization       2.5900286      2.5861620      2.5872818

 Broyden mixing:
  rms(total) = 0.25399E+00    rms(broyden)= 0.25399E+00
  rms(prec ) = 0.29549E+00
  weight for this iteration     100.00

 eigenvalues of (default mixing * dielectric matrix)
  average eigenvalue GAMMA=   1.1609
  2.0892  2.0892  0.9897  0.9897  0.6848  0.6848  0.5985

 Free energy of the ion-electron system (eV)
  ---------------------------------------------------
  alpha Z        PSCENC =       370.05370877
  Ewald energy   TEWEN  =    -15558.20605741
  -Hartree energ DENC   =     -8454.81388322
  -exchange      EXHF   =         0.00000000
  -V(xc)+E(xc)   XCENC  =       421.78198221
  PAW double counting   =     30719.99131860   -29978.31634173
  entropy T*S    EENTRO =        -0.00000000
  eigenvalues    EBANDS =     -2690.65629371
  atomic energy  EATOM  =     24749.00668030
  Solvation  Ediel_sol  =         0.00000000
  ---------------------------------------------------
  free energy    TOTEN  =      -421.15888619 eV

  energy without entropy =     -421.15888619  energy(sigma->0) =     -421.15888619


--------------------------------------------------------------------------------------------------------




----------------------------------------- Iteration    1(  13)  ---------------------------------------


    POTLOK:  cpu time    0.5840: real time    0.5820
    SETDIJ:  cpu time    2.1561: real time    2.1600
     EDDAV:  cpu time  278.7534: real time  278.9393
       DOS:  cpu time    0.0040: real time    0.0039
    CHARGE:  cpu time   11.8967: real time   11.9054
    MIXING:  cpu time    0.0200: real time    0.0174
    --------------------------------------------
      LOOP:  cpu time  293.4183: real time  293.6362

 eigenvalue-minimisations  : 39968
 total energy-change (2. order) :-0.1682637E+01  (-0.2491090E+00)
 number of electron     400.0000000 magnetization       1.6437056      1.6416549      1.6428262
 augmentation part        7.9001514 magnetization       1.6929385      1.6921764      1.6926248

 Broyden mixing:
  rms(total) = 0.20725E+00    rms(broyden)= 0.20725E+00
  rms(prec ) = 0.24550E+00
  weight for this iteration     100.00

 eigenvalues of (default mixing * dielectric matrix)
  average eigenvalue GAMMA=   1.1912
  2.2081  2.2081  1.0985  1.0985  0.8603  0.8603  0.6224  0.5735

 Free energy of the ion-electron system (eV)
  ---------------------------------------------------
  alpha Z        PSCENC =       370.05370877
  Ewald energy   TEWEN  =    -15558.20605741
  -Hartree energ DENC   =     -8441.88267080
[...]
     0.0000000     0.0000000     0.0000000     0.0000000     0.0000000     0.0000000     0.0000000
     0.0000000     0.0000000     0.0000000     0.0000000     0.0000000     0.0000000     0.0000000
     0.0000000     0.0000000     0.0000000     0.0000000     0.0000000     0.0000000     0.0000000
     0.0000000     0.0000000     0.0000000     0.0000000     0.0000000     0.0000000     0.0000000

 Ion:   82  E_soc:     -0.2789653
 l=   1
     0.0000000    -0.0478244    -0.0484867
    -0.0478244     0.0000000    -0.0431886
    -0.0484867    -0.0431886     0.0000000
 l=   2
     0.0000000    -0.0000084     0.0000000    -0.0000026     0.0000208
    -0.0000084     0.0000000     0.0000046    -0.0000024     0.0000103
     0.0000000     0.0000046     0.0000000    -0.0000034     0.0000000
    -0.0000026    -0.0000024    -0.0000034     0.0000000    -0.0000019
     0.0000208     0.0000103     0.0000000    -0.0000019     0.0000000
 l=   3
     0.0000000     0.0000000     0.0000000     0.0000000     0.0000000     0.0000000     0.0000000
     0.0000000     0.0000000     0.0000000     0.0000000     0.0000000     0.0000000     0.0000000
     0.0000000     0.0000000     0.0000000     0.0000000     0.0000000     0.0000000     0.0000000
     0.0000000     0.0000000     0.0000000     0.0000000     0.0000000     0.0000000     0.0000000
     0.0000000     0.0000000     0.0000000     0.0000000     0.0000000     0.0000000     0.0000000
     0.0000000     0.0000000     0.0000000     0.0000000     0.0000000     0.0000000     0.0000000
     0.0000000     0.0000000     0.0000000     0.0000000     0.0000000     0.0000000     0.0000000

 Ion:   83  E_soc:     -0.2789653
 l=   1
     0.0000000    -0.0478244    -0.0484867
    -0.0478244     0.0000000    -0.0431886
    -0.0484867    -0.0431886     0.0000000
 l=   2
     0.0000000    -0.0000084     0.0000000    -0.0000026     0.0000208
    -0.0000084     0.0000000     0.0000046    -0.0000024     0.0000103
     0.0000000     0.0000046     0.0000000    -0.0000034     0.0000000
    -0.0000026    -0.0000024    -0.0000034     0.0000000    -0.0000019
     0.0000208     0.0000103     0.0000000    -0.0000019     0.0000000
 l=   3
     0.0000000     0.0000000     0.0000000     0.0000000     0.0000000     0.0000000     0.0000000
     0.0000000     0.0000000     0.0000000     0.0000000     0.0000000     0.0000000     0.0000000
     0.0000000     0.0000000     0.0000000     0.0000000     0.0000000     0.0000000     0.0000000
     0.0000000     0.0000000     0.0000000     0.0000000     0.0000000     0.0000000     0.0000000
     0.0000000     0.0000000     0.0000000     0.0000000     0.0000000     0.0000000     0.0000000
     0.0000000     0.0000000     0.0000000     0.0000000     0.0000000     0.0000000     0.0000000
     0.0000000     0.0000000     0.0000000     0.0000000     0.0000000     0.0000000     0.0000000

 Ion:   84  E_soc:     -0.2812533
 l=   1
     0.0000000    -0.0488162    -0.0489220
    -0.0488162     0.0000000    -0.0429124
    -0.0489220    -0.0429124     0.0000000
 l=   2
     0.0000000    -0.0000100     0.0000000    -0.0000026     0.0000229
    -0.0000100     0.0000000     0.0000057    -0.0000022     0.0000139
     0.0000000     0.0000057     0.0000000    -0.0000030     0.0000000
    -0.0000026    -0.0000022    -0.0000030     0.0000000    -0.0000009
     0.0000229     0.0000139     0.0000000    -0.0000009     0.0000000
 l=   3
     0.0000000     0.0000000     0.0000000     0.0000000     0.0000000     0.0000000     0.0000000
     0.0000000     0.0000000     0.0000000     0.0000000     0.0000000     0.0000000     0.0000000
     0.0000000     0.0000000     0.0000000     0.0000000     0.0000000     0.0000000     0.0000000
     0.0000000     0.0000000     0.0000000     0.0000000     0.0000000     0.0000000     0.0000000
     0.0000000     0.0000000     0.0000000     0.0000000     0.0000000     0.0000000     0.0000000
     0.0000000     0.0000000     0.0000000     0.0000000     0.0000000     0.0000000     0.0000000
     0.0000000     0.0000000     0.0000000     0.0000000     0.0000000     0.0000000     0.0000000

 Ion:   85  E_soc:     -0.2789653
 l=   1
     0.0000000    -0.0478244    -0.0484867
    -0.0478244     0.0000000    -0.0431886
    -0.0484867    -0.0431886     0.0000000
 l=   2
     0.0000000    -0.0000084     0.0000000    -0.0000026     0.0000208
    -0.0000084     0.0000000     0.0000046    -0.0000024     0.0000103
     0.0000000     0.0000046     0.0000000    -0.0000034     0.0000000
    -0.0000026    -0.0000024    -0.0000034     0.0000000    -0.0000019
     0.0000208     0.0000103     0.0000000    -0.0000019     0.0000000
 l=   3
     0.0000000     0.0000000     0.0000000     0.0000000     0.0000000     0.0000000     0.0000000
     0.0000000     0.0000000     0.0000000     0.0000000     0.0000000     0.0000000     0.0000000
     0.0000000     0.0000000     0.0000000     0.0000000     0.0000000     0.0000000     0.0000000
     0.0000000     0.0000000     0.0000000     0.0000000     0.0000000     0.0000000     0.0000000
     0.0000000     0.0000000     0.0000000     0.0000000     0.0000000     0.0000000     0.0000000
     0.0000000     0.0000000     0.0000000     0.0000000     0.0000000     0.0000000     0.0000000
     0.0000000     0.0000000     0.0000000     0.0000000     0.0000000     0.0000000     0.0000000

 Ion:   86  E_soc:     -0.2812533
 l=   1
     0.0000000    -0.0488162    -0.0489220
    -0.0488162     0.0000000    -0.0429124
    -0.0489220    -0.0429124     0.0000000
 l=   2
     0.0000000    -0.0000100     0.0000000    -0.0000026     0.0000229
    -0.0000100     0.0000000     0.0000057    -0.0000022     0.0000139
     0.0000000     0.0000057     0.0000000    -0.0000030     0.0000000
    -0.0000026    -0.0000022    -0.0000030     0.0000000    -0.0000009
     0.0000229     0.0000139     0.0000000    -0.0000009     0.0000000
 l=   3
     0.0000000     0.0000000     0.0000000     0.0000000     0.0000000     0.0000000     0.0000000
     0.0000000     0.0000000     0.0000000     0.0000000     0.0000000     0.0000000     0.0000000
     0.0000000     0.0000000     0.0000000     0.0000000     0.0000000     0.0000000     0.0000000
     0.0000000     0.0000000     0.0000000     0.0000000     0.0000000     0.0000000     0.0000000
     0.0000000     0.0000000     0.0000000     0.0000000     0.0000000     0.0000000     0.0000000
     0.0000000     0.0000000     0.0000000     0.0000000     0.0000000     0.0000000     0.0000000
     0.0000000     0.0000000     0.0000000     0.0000000     0.0000000     0.0000000     0.0000000

 Ion:   87  E_soc:     -0.2812533
 l=   1
     0.0000000    -0.0488162    -0.0489220
    -0.0488162     0.0000000    -0.0429124
    -0.0489220    -0.0429124     0.0000000
 l=   2
     0.0000000    -0.0000100     0.0000000    -0.0000026     0.0000229
    -0.0000100     0.0000000     0.0000057    -0.0000022     0.0000139
     0.0000000     0.0000057     0.0000000    -0.0000030     0.0000000
    -0.0000026    -0.0000022    -0.0000030     0.0000000    -0.0000009
     0.0000229     0.0000139     0.0000000    -0.0000009     0.0000000
 l=   3
     0.0000000     0.0000000     0.0000000     0.0000000     0.0000000     0.0000000     0.0000000
     0.0000000     0.0000000     0.0000000     0.0000000     0.0000000     0.0000000     0.0000000
     0.0000000     0.0000000     0.0000000     0.0000000     0.0000000     0.0000000     0.0000000
     0.0000000     0.0000000     0.0000000     0.0000000     0.0000000     0.0000000     0.0000000
     0.0000000     0.0000000     0.0000000     0.0000000     0.0000000     0.0000000     0.0000000
     0.0000000     0.0000000     0.0000000     0.0000000     0.0000000     0.0000000     0.0000000
     0.0000000     0.0000000     0.0000000     0.0000000     0.0000000     0.0000000     0.0000000

 Ion:   88  E_soc:     -0.2789653
 l=   1
     0.0000000    -0.0478244    -0.0484867
    -0.0478244     0.0000000    -0.0431886
    -0.0484867    -0.0431886     0.0000000
 l=   2
     0.0000000    -0.0000084     0.0000000    -0.0000026     0.0000208
    -0.0000084     0.0000000     0.0000046    -0.0000024     0.0000103
     0.0000000     0.0000046     0.0000000    -0.0000034     0.0000000
    -0.0000026    -0.0000024    -0.0000034     0.0000000    -0.0000019
     0.0000208     0.0000103     0.0000000    -0.0000019     0.0000000
 l=   3
     0.0000000     0.0000000     0.0000000     0.0000000     0.0000000     0.0000000     0.0000000
     0.0000000     0.0000000     0.0000000     0.0000000     0.0000000     0.0000000     0.0000000
     0.0000000     0.0000000     0.0000000     0.0000000     0.0000000     0.0000000     0.0000000
     0.0000000     0.0000000     0.0000000     0.0000000     0.0000000     0.0000000     0.0000000
     0.0000000     0.0000000     0.0000000     0.0000000     0.0000000     0.0000000     0.0000000
     0.0000000     0.0000000     0.0000000     0.0000000     0.0000000     0.0000000     0.0000000
     0.0000000     0.0000000     0.0000000     0.0000000     0.0000000     0.0000000     0.0000000

 Ion:   89  E_soc:     -0.2851990
 l=   1
     0.0000000    -0.0430598    -0.0493573
    -0.0430598     0.0000000    -0.0502011
    -0.0493573    -0.0502011     0.0000000
 l=   2
     0.0000000    -0.0000020     0.0000000    -0.0000074     0.0000181
    -0.0000020     0.0000000    -0.0000023    -0.0000024    -0.0000016
     0.0000000    -0.0000023     0.0000000     0.0000046     0.0000000
    -0.0000074    -0.0000024     0.0000046     0.0000000     0.0000117
     0.0000181    -0.0000016     0.0000000     0.0000117     0.0000000
 l=   3
     0.0000000     0.0000000     0.0000000     0.0000000     0.0000000     0.0000000     0.0000000
     0.0000000     0.0000000     0.0000000     0.0000000     0.0000000     0.0000000     0.0000000
     0.0000000     0.0000000     0.0000000     0.0000000     0.0000000     0.0000000     0.0000000
     0.0000000     0.0000000     0.0000000     0.0000000     0.0000000     0.0000000     0.0000000
     0.0000000     0.0000000     0.0000000     0.0000000     0.0000000     0.0000000     0.0000000
     0.0000000     0.0000000     0.0000000     0.0000000     0.0000000     0.0000000     0.0000000
     0.0000000     0.0000000     0.0000000     0.0000000     0.0000000     0.0000000     0.0000000

 Ion:   90  E_soc:     -0.2851800
 l=   1
     0.0000000    -0.0430596    -0.0493516
    -0.0430596     0.0000000    -0.0501976
    -0.0493516    -0.0501976     0.0000000
 l=   2
     0.0000000    -0.0000020     0.0000000    -0.0000074     0.0000181
    -0.0000020     0.0000000    -0.0000023    -0.0000024    -0.0000016
     0.0000000    -0.0000023     0.0000000     0.0000046     0.0000000
    -0.0000074    -0.0000024     0.0000046     0.0000000     0.0000117
     0.0000181    -0.0000016     0.0000000     0.0000117     0.0000000
 l=   3
     0.0000000     0.0000000     0.0000000     0.0000000     0.0000000     0.0000000     0.0000000
     0.0000000     0.0000000     0.0000000     0.0000000     0.0000000     0.0000000     0.0000000
     0.0000000     0.0000000     0.0000000     0.0000000     0.0000000     0.0000000     0.0000000
     0.0000000     0.0000000     0.0000000     0.0000000     0.0000000     0.0000000     0.0000000
     0.0000000     0.0000000     0.0000000     0.0000000     0.0000000     0.0000000     0.0000000
     0.0000000     0.0000000     0.0000000     0.0000000     0.0000000     0.0000000     0.0000000
     0.0000000     0.0000000     0.0000000     0.0000000     0.0000000     0.0000000     0.0000000

 Ion:   91  E_soc:     -0.2851800
 l=   1
     0.0000000    -0.0430596    -0.0493516
    -0.0430596     0.0000000    -0.0501976
    -0.0493516    -0.0501976     0.0000000
 l=   2
     0.0000000    -0.0000020     0.0000000    -0.0000074     0.0000181
    -0.0000020     0.0000000    -0.0000023    -0.0000024    -0.0000016
     0.0000000    -0.0000023     0.0000000     0.0000046     0.0000000
    -0.0000074    -0.0000024     0.0000046     0.0000000     0.0000117
     0.0000181    -0.0000016     0.0000000     0.0000117     0.0000000
 l=   3
     0.0000000     0.0000000     0.0000000     0.0000000     0.0000000     0.0000000     0.0000000
     0.0000000     0.0000000     0.0000000     0.0000000     0.0000000     0.0000000     0.0000000
     0.0000000     0.0000000     0.0000000     0.0000000     0.0000000     0.0000000     0.0000000
     0.0000000     0.0000000     0.0000000     0.0000000     0.0000000     0.0000000     0.0000000
     0.0000000     0.0000000     0.0000000     0.0000000     0.0000000     0.0000000     0.0000000
     0.0000000     0.0000000     0.0000000     0.0000000     0.0000000     0.0000000     0.0000000
     0.0000000     0.0000000     0.0000000     0.0000000     0.0000000     0.0000000     0.0000000

 Ion:   92  E_soc:     -0.2851990
 l=   1
     0.0000000    -0.0430598    -0.0493573
    -0.0430598     0.0000000    -0.0502011
    -0.0493573    -0.0502011     0.0000000
 l=   2
     0.0000000    -0.0000020     0.0000000    -0.0000074     0.0000181
    -0.0000020     0.0000000    -0.0000023    -0.0000024    -0.0000016
     0.0000000    -0.0000023     0.0000000     0.0000046     0.0000000
    -0.0000074    -0.0000024     0.0000046     0.0000000     0.0000117
     0.0000181    -0.0000016     0.0000000     0.0000117     0.0000000
 l=   3
     0.0000000     0.0000000     0.0000000     0.0000000     0.0000000     0.0000000     0.0000000
     0.0000000     0.0000000     0.0000000     0.0000000     0.0000000     0.0000000     0.0000000
     0.0000000     0.0000000     0.0000000     0.0000000     0.0000000     0.0000000     0.0000000
     0.0000000     0.0000000     0.0000000     0.0000000     0.0000000     0.0000000     0.0000000
     0.0000000     0.0000000     0.0000000     0.0000000     0.0000000     0.0000000     0.0000000
     0.0000000     0.0000000     0.0000000     0.0000000     0.0000000     0.0000000     0.0000000
     0.0000000     0.0000000     0.0000000     0.0000000     0.0000000     0.0000000     0.0000000

 Ion:   93  E_soc:     -0.2851800
 l=   1
     0.0000000    -0.0430596    -0.0493516
    -0.0430596     0.0000000    -0.0501976
    -0.0493516    -0.0501976     0.0000000
 l=   2
     0.0000000    -0.0000020     0.0000000    -0.0000074     0.0000181
    -0.0000020     0.0000000    -0.0000023    -0.0000024    -0.0000016
     0.0000000    -0.0000023     0.0000000     0.0000046     0.0000000
    -0.0000074    -0.0000024     0.0000046     0.0000000     0.0000117
     0.0000181    -0.0000016     0.0000000     0.0000117     0.0000000
 l=   3
     0.0000000     0.0000000     0.0000000     0.0000000     0.0000000     0.0000000     0.0000000
     0.0000000     0.0000000     0.0000000     0.0000000     0.0000000     0.0000000     0.0000000
     0.0000000     0.0000000     0.0000000     0.0000000     0.0000000     0.0000000     0.0000000
     0.0000000     0.0000000     0.0000000     0.0000000     0.0000000     0.0000000     0.0000000
     0.0000000     0.0000000     0.0000000     0.0000000     0.0000000     0.0000000     0.0000000
     0.0000000     0.0000000     0.0000000     0.0000000     0.0000000     0.0000000     0.0000000
     0.0000000     0.0000000     0.0000000     0.0000000     0.0000000     0.0000000     0.0000000

 Ion:   94  E_soc:     -0.2851990
 l=   1
     0.0000000    -0.0430598    -0.0493573
    -0.0430598     0.0000000    -0.0502011
    -0.0493573    -0.0502011     0.0000000
 l=   2
     0.0000000    -0.0000020     0.0000000    -0.0000074     0.0000181
    -0.0000020     0.0000000    -0.0000023    -0.0000024    -0.0000016
     0.0000000    -0.0000023     0.0000000     0.0000046     0.0000000
    -0.0000074    -0.0000024     0.0000046     0.0000000     0.0000117
     0.0000181    -0.0000016     0.0000000     0.0000117     0.0000000
 l=   3
     0.0000000     0.0000000     0.0000000     0.0000000     0.0000000     0.0000000     0.0000000
     0.0000000     0.0000000     0.0000000     0.0000000     0.0000000     0.0000000     0.0000000
     0.0000000     0.0000000     0.0000000     0.0000000     0.0000000     0.0000000     0.0000000
     0.0000000     0.0000000     0.0000000     0.0000000     0.0000000     0.0000000     0.0000000
     0.0000000     0.0000000     0.0000000     0.0000000     0.0000000     0.0000000     0.0000000
     0.0000000     0.0000000     0.0000000     0.0000000     0.0000000     0.0000000     0.0000000
     0.0000000     0.0000000     0.0000000     0.0000000     0.0000000     0.0000000     0.0000000

 Ion:   95  E_soc:     -0.2851990
 l=   1
     0.0000000    -0.0430598    -0.0493573
    -0.0430598     0.0000000    -0.0502011
    -0.0493573    -0.0502011     0.0000000
 l=   2
     0.0000000    -0.0000020     0.0000000    -0.0000074     0.0000181
    -0.0000020     0.0000000    -0.0000023    -0.0000024    -0.0000016
     0.0000000    -0.0000023     0.0000000     0.0000046     0.0000000
    -0.0000074    -0.0000024     0.0000046     0.0000000     0.0000117
     0.0000181    -0.0000016     0.0000000     0.0000117     0.0000000
 l=   3
     0.0000000     0.0000000     0.0000000     0.0000000     0.0000000     0.0000000     0.0000000
     0.0000000     0.0000000     0.0000000     0.0000000     0.0000000     0.0000000     0.0000000
     0.0000000     0.0000000     0.0000000     0.0000000     0.0000000     0.0000000     0.0000000
     0.0000000     0.0000000     0.0000000     0.0000000     0.0000000     0.0000000     0.0000000
     0.0000000     0.0000000     0.0000000     0.0000000     0.0000000     0.0000000     0.0000000
     0.0000000     0.0000000     0.0000000     0.0000000     0.0000000     0.0000000     0.0000000
     0.0000000     0.0000000     0.0000000     0.0000000     0.0000000     0.0000000     0.0000000

 Ion:   96  E_soc:     -0.2851800
 l=   1
     0.0000000    -0.0430596    -0.0493516
    -0.0430596     0.0000000    -0.0501976
    -0.0493516    -0.0501976     0.0000000
 l=   2
     0.0000000    -0.0000020     0.0000000    -0.0000074     0.0000181
    -0.0000020     0.0000000    -0.0000023    -0.0000024    -0.0000016
     0.0000000    -0.0000023     0.0000000     0.0000046     0.0000000
    -0.0000074    -0.0000024     0.0000046     0.0000000     0.0000117
     0.0000181    -0.0000016     0.0000000     0.0000117     0.0000000
 l=   3
     0.0000000     0.0000000     0.0000000     0.0000000     0.0000000     0.0000000     0.0000000
     0.0000000     0.0000000     0.0000000     0.0000000     0.0000000     0.0000000     0.0000000
     0.0000000     0.0000000     0.0000000     0.0000000     0.0000000     0.0000000     0.0000000
     0.0000000     0.0000000     0.0000000     0.0000000     0.0000000     0.0000000     0.0000000
     0.0000000     0.0000000     0.0000000     0.0000000     0.0000000     0.0000000     0.0000000
     0.0000000     0.0000000     0.0000000     0.0000000     0.0000000     0.0000000     0.0000000
     0.0000000     0.0000000     0.0000000     0.0000000     0.0000000     0.0000000     0.0000000

 total amount of memory used by VASP on root node   392927. kBytes
========================================================================

   base      :      30000. kBytes
   nonl-proj :      73667. kBytes
   fftplans  :      22714. kBytes
   grid      :      35610. kBytes
   one-center:        248. kBytes
   wavefun   :     230688. kBytes
 
  
  
 General timing and accounting informations for this job:
 ========================================================
  
                  Total CPU time used (sec):     8789.193
                            User time (sec):     8775.624
                          System time (sec):       13.569
                         Elapsed time (sec):     8814.822
  
                   Maximum memory used (kb):      412312.
                   Average memory used (kb):           0.
  
                          Minor page faults:       594385
                          Major page faults:            0
                 Voluntary context switches:        10788
