 running on  192 total cores
 distrk:  each k-point on  192 cores,    1 groups
 distr:  one band on   24 cores,    8 groups
 using from now: INCAR     
 vasp.5.4.1 24Jun15 (build Nov 25 2015 16:39:35) complex                        
  
 POSCAR found type information on POSCAR  C  N  H  Pb I 
 POSCAR found :  5 types and      96 ions
 scaLAPACK will be used

 ----------------------------------------------------------------------------- 
|                                                                             |
|  ADVICE TO THIS USER RUNNING 'VASP/VAMP'   (HEAR YOUR MASTER'S VOICE ...):  |
|                                                                             |
|      You have a (more or less) 'large supercell' and for larger cells       |
|      it might be more efficient to use real space projection opertators     |
|      So try LREAL= Auto  in the INCAR   file.                               |
|      Mind: At the moment your POTCAR file does not contain real space       |
|       projectors, and has to be modified,  BUT if you                       |
|      want to do an extremely  accurate calculation you might also keep the  |
|      reciprocal projection scheme          (i.e. LREAL=.FALSE.)             |
|                                                                             |
 ----------------------------------------------------------------------------- 


 ----------------------------------------------------------------------------- 
|                                                                             |
|  ADVICE TO THIS USER RUNNING 'VASP/VAMP'   (HEAR YOUR MASTER'S VOICE ...):  |
|                                                                             |
|      You enforced a specific xc-type in the INCAR file,                     |
|      a different type was found on the POTCAR file                          |
|          I HOPE YOU KNOW, WHAT YOU ARE  DOING                               |
|                                                                             |
 ----------------------------------------------------------------------------- 

 LDA part: xc-table for Pade appr. of Perdew
 POSCAR, INCAR and KPOINTS ok, starting setup
 WARNING: small aliasing (wrap around) errors must be expected
 FFT: planning ...
 WAVECAR not read
 entering main loop
       N       E                     dE             d eps       ncg     rms          rms(c)
DAV:   1     0.422165114624E+04    0.42217E+04   -0.19288E+05 32544   0.146E+03
DAV:   2     0.842780594154E+03   -0.33789E+04   -0.31299E+04 35552   0.322E+02
DAV:   3     0.233069398415E+03   -0.60971E+03   -0.58939E+03 43960   0.157E+02
DAV:   4     0.187215702165E+03   -0.45854E+02   -0.44764E+02 44096   0.438E+01
DAV:   5     0.185005066895E+03   -0.22106E+01   -0.22016E+01 50496   0.994E+00    0.976E+01
DAV:   6     0.548916370706E+02   -0.13011E+03   -0.15144E+03 37016   0.506E+01    0.488E+01
DAV:   7    -0.938531642644E+02   -0.14874E+03   -0.15978E+02 38960   0.219E+01    0.284E+01
DAV:   8    -0.201690537525E+03   -0.10784E+03   -0.65322E+01 37608   0.130E+01    0.184E+01
DAV:   9    -0.332945863494E+03   -0.13126E+03   -0.12191E+02 36688   0.161E+01    0.923E+00
DAV:  10    -0.380954666567E+03   -0.48009E+02   -0.47375E+01 37336   0.104E+01    0.663E+00
DAV:  11    -0.410565674568E+03   -0.29611E+02   -0.41003E+01 37704   0.838E+00    0.378E+00
DAV:  12    -0.421158886191E+03   -0.10593E+02   -0.16459E+01 41448   0.540E+00    0.254E+00
DAV:  13    -0.422841523244E+03   -0.16826E+01   -0.24911E+00 39968   0.255E+00    0.207E+00
DAV:  14    -0.423454138778E+03   -0.61262E+00   -0.90515E-01 38728   0.135E+00    0.112E+00
DAV:  15    -0.423514451803E+03   -0.60313E-01   -0.17528E-01 42608   0.709E-01    0.638E-01
DAV:  16    -0.423521473692E+03   -0.70219E-02   -0.26080E-02 41576   0.306E-01    0.412E-01
DAV:  17    -0.423524876779E+03   -0.34031E-02   -0.93831E-03 39096   0.168E-01    0.222E-01
DAV:  18    -0.423526479440E+03   -0.16027E-02   -0.30028E-03 40280   0.944E-02    0.836E-02
DAV:  19    -0.423526907069E+03   -0.42763E-03   -0.71144E-04 39752   0.514E-02    0.449E-02
DAV:  20    -0.423527190754E+03   -0.28368E-03   -0.21585E-04 37496   0.290E-02    0.237E-02
DAV:  21    -0.423527317404E+03   -0.12665E-03   -0.12600E-04 39336   0.189E-02    0.149E-02
DAV:  22    -0.423527326327E+03   -0.89226E-05   -0.19585E-05 44000   0.870E-03    0.105E-02
DAV:  23    -0.423527328609E+03   -0.22822E-05   -0.66546E-06 40848   0.413E-03    0.413E-03
DAV:  24    -0.423527330835E+03   -0.22267E-05   -0.25992E-06 35256   0.297E-03    0.169E-03
DAV:  25    -0.423527330919E+03   -0.83794E-07   -0.66664E-07 41560   0.140E-03    0.140E-03
DAV:  26    -0.423527330919E+03    0.37107E-09   -0.12240E-07 43096   0.729E-04    0.101E-03
DAV:  27    -0.423527330850E+03    0.69103E-07   -0.38610E-08 34736   0.419E-04    0.367E-04
DAV:  28    -0.423527330756E+03    0.93798E-07   -0.23601E-08 31744   0.292E-04    0.279E-04
DAV:  29    -0.423527330751E+03    0.46020E-08   -0.33801E-09 29816   0.148E-04
   1 F= -.42352733E+03 E0= -.42352733E+03  d E =0.000000E+00  mag=     0.0000     0.0000     0.0000
Application 22254262 resources: utime ~1687760s, stime ~2657s, Rss ~416052, inblocks ~2682325, outblocks ~3873542
