Name                                    
   5.43100000000000     
     0.500000    0.500000    0.000000
     0.500000    0.000000   -0.500000
     0.000000    0.500000   -0.500000
   Si
     2
Direct
  0.000000  0.000000  0.000000
  0.250000  0.250000  0.250000
 
   56   56   56
 -8.1160     -7.5344     -5.8522     -3.2489     0.30864E-02  3.5757      7.1310      10.366      13.047      15.032    
  16.275      16.811      16.743      16.215      15.392      14.430      13.425      12.423      11.460      10.564    
  9.7555      9.0426      8.4288      7.9128      7.4919      7.1642      6.9291      6.7874      6.7399      6.7874    
  6.9291      7.1642      7.4919      7.9128      8.4288      9.0426      9.7555      10.564      11.460      12.423    
  13.425      14.430      15.392      16.215      16.743      16.811      16.275      15.032      13.047      10.366    
  7.1310      3.5757     0.30864E-02 -3.2489     -5.8522     -7.5344     -7.5344     -6.3456     -4.0999     -1.0420    
  2.5058      6.1900      9.6758      12.689      15.044      16.652      17.519      17.721      17.389      16.682    
  15.765      14.769      13.752      12.755      11.810      10.941      10.163      9.4813      8.8982      8.4123    
  8.0221      7.7274      7.5292      7.4295      7.4295      7.5292      7.7274      8.0221      8.4123      8.8982    
  9.4813      10.163      10.941      11.810      12.755      13.752      14.769      15.765      16.682      17.389    
  17.721      17.519      16.652      15.044      12.689      9.6758      6.1900      2.5058     -1.0420     -4.0999    
 -6.3456     -7.5344     -5.8522     -4.0999     -1.4020      1.9432      5.5844      9.1685      12.389      15.019    
  16.933      18.097      18.563      18.441      17.879      17.040      16.074      15.065      14.054      13.078    
  12.164      11.331      10.589      9.9431      9.3939      8.9409      8.5847      8.3270      8.1707      8.1182    
  8.1707      8.3270      8.5847      8.9409      9.3939      9.9431      10.589      11.331      12.164      13.078    
  14.054      15.065      16.074      17.040      17.879      18.441      18.563      18.097      16.933      15.019    
  12.389      9.1685      5.5844      1.9432     -1.4020     -4.0999     -5.8522     -6.4596     -3.2489     -1.0420    
  1.9432      5.3757      8.9005      12.191      14.988      17.127      18.541      19.247      19.336      18.937    
  18.206      17.296      16.318      15.317      14.332      13.391      12.519      11.728      11.028      10.420    
  9.9069      9.4893      9.1703      8.9540      8.8445      8.8445      8.9540      9.1703      9.4893      9.9069    
  10.420      11.028      11.728      12.519      13.391      14.332      15.317      16.318      17.296      18.206    
  18.937      19.336      19.247      18.541      17.127      14.988      12.191      8.9005      5.3757      1.9432    
 -1.0420     -3.2489     -4.4219     -4.4219     0.30864E-02  2.5058      5.5844      8.9005      12.122      14.968    
  17.242      18.842      19.755      20.041      19.813      19.213      18.387      17.464      16.498      15.528    
  14.584      13.692      12.869      12.126      11.469      10.901      10.425      10.045      9.7665      9.5963    
  9.5389      9.5963      9.7665      10.045      10.425      10.901      11.469      12.126      12.869      13.692    
  14.584      15.528      16.498      17.464      18.387      19.213      19.813      20.041      19.755      18.842    
  17.242      14.968      12.122      8.9005      5.5844      2.5058     0.30864E-02 -1.6313     -2.1994     -1.6313    
  3.5757      6.1900      9.1685      12.191      14.968      17.281      18.995      20.067      20.529      20.470    
  20.014      19.299      18.455      17.550      16.621      15.699      14.811      13.976      13.207      12.514    
  11.900      11.371      10.933      10.592      10.359      10.240      10.240      10.359      10.592      10.933    
  11.371      11.900      12.514      13.207      13.976      14.811      15.699      16.621      17.550      18.455    
  19.299      20.014      20.470      20.529      20.067      18.995      17.281      14.968      12.191      9.1685    
  6.1900      3.5757      1.6303     0.59219     0.59219      1.6303      7.1310      9.6758      12.389      14.988    
  17.242      18.995      20.173      20.779      20.878      20.572      19.987      19.246      18.427      17.565    
  16.692      15.833      15.009      14.235      13.522      12.876      12.304      11.813      11.414      11.117    
  10.933      10.871      10.933      11.117      11.414      11.813      12.304      12.876      13.522      14.235    
  15.009      15.833      16.692      17.565      18.427      19.246      19.987      20.572      20.878      20.779    
  20.173      18.995      17.242      14.988      12.389      9.6758      7.1310      5.0466      3.6787      3.2020    
  3.6787      5.0466      10.366      12.689      15.019      17.127      18.842      20.067      20.779      21.016    
  20.858      20.414      19.798      19.087      18.317      17.518      16.715      15.928      15.172      14.460    
  13.799      13.197      12.664      12.211      11.852      11.602      11.473      11.473      11.602      11.852    
  12.211      12.664      13.197      13.799      14.460      15.172      15.928      16.715      17.518      18.317    
  19.087      19.798      20.414      20.858      21.016      20.779      20.067      18.842      17.127      15.019    
  12.689      10.366      8.3090      6.7698      5.9456      5.9456      6.7698      8.3090      13.047      15.044    
  16.933      18.541      19.755      20.529      20.878      20.858      20.560      20.081      19.497      18.841    
  18.140      17.417      16.692      15.979      15.291      14.635      14.021      13.459      12.962      12.547    
  12.232      12.035      11.967      12.035      12.232      12.547      12.962      13.459      14.021      14.635    
  15.291      15.979      16.692      17.417      18.140      18.841      19.497      20.081      20.560      20.858    
  20.878      20.529      19.755      18.541      16.933      15.044      13.047      11.156      9.5970      8.5698    
  8.2111      8.5698      9.5970      11.156      15.032      16.652      18.097      19.247      20.041      20.470    
  20.572      20.414      20.081      19.636      19.110      18.526      17.906      17.266      16.621      15.980    
  15.353      14.748      14.174      13.646      13.184      12.809      12.543      12.405      12.405      12.543    
  12.809      13.184      13.646      14.174      14.748      15.353      15.980      16.621      17.266      17.906    
  18.526      19.110      19.636      20.081      20.414      20.572      20.470      20.041      19.247      18.097    
  16.652      15.032      13.401      11.947      10.853      10.266      10.266      10.853      11.947      13.401    
  16.275      17.519      18.563      19.336      19.813      20.014      19.987      19.798      19.497      19.110    
  18.657      18.157      17.623      17.067      16.498      15.922      15.348      14.783      14.243      13.747    
  13.320      12.987      12.775      12.702      12.775      12.987      13.320      13.747      14.243      14.783    
  15.348      15.922      16.498      17.067      17.623      18.157      18.657      19.110      19.497      19.798    
  19.987      20.014      19.813      19.336      18.563      17.519      16.275      14.947      13.681      12.632    
  11.938      11.696      11.938      12.632      13.681      14.947      16.811      17.721      18.441      18.937    
  19.213      19.299      19.246      19.087      18.841      18.526      18.157      17.744      17.296      16.819    
  16.318      15.796      15.263      14.731      14.218      13.749      13.355      13.068      12.917      12.917    
  13.068      13.355      13.749      14.218      14.731      15.263      15.796      16.318      16.819      17.296    
  17.744      18.157      18.526      18.841      19.087      19.246      19.299      19.213      18.937      18.441    
  17.721      16.811      15.785      14.745      13.816      13.114      12.737      12.737      13.114      13.816    
  14.745      15.785      16.743      17.389      17.879      18.206      18.387      18.455      18.427      18.317    
  18.140      17.906      17.623      17.296      16.928      16.520      16.074      15.595      15.093      14.583    
  14.088      13.642      13.285      13.053      12.973      13.053      13.285      13.642      14.088      14.583    
  15.093      15.595      16.074      16.520      16.928      17.296      17.623      17.906      18.140      18.317    
  18.427      18.455      18.387      18.206      17.879      17.389      16.743      15.980      15.166      14.391    
  13.748      13.322      13.174      13.322      13.748      14.391      15.166      15.980      16.215      16.682    
  17.040      17.296      17.464      17.550      17.565      17.518      17.417      17.266      17.067      16.819    
  16.520      16.168      15.765      15.316      14.831      14.331      13.850      13.433      13.123      12.958    
  12.958      13.123      13.433      13.850      14.331      14.831      15.316      15.765      16.168      16.520    
  16.819      17.067      17.266      17.417      17.518      17.565      17.550      17.464      17.296      17.040    
  16.682      16.215      15.653      15.032      14.411      13.859      13.443      13.220      13.220      13.443    
  13.859      14.411      15.032      15.653      15.392      15.765      16.074      16.318      16.498      16.621    
  16.692      16.715      16.692      16.621      16.498      16.318      16.074      15.765      15.392      14.957    
  14.477      13.984      13.524      13.148      12.900      12.814      12.900      13.148      13.524      13.984    
  14.477      14.957      15.392      15.765      16.074      16.318      16.498      16.621      16.692      16.715    
  16.692      16.621      16.498      16.318      16.074      15.765      15.392      14.957      14.477      13.984    
  13.524      13.148      12.900      12.814      12.900      13.148      13.524      13.984      14.477      14.957    
  14.430      14.769      15.065      15.317      15.528      15.699      15.833      15.928      15.979      15.980    
  15.922      15.796      15.595      15.316      14.957      14.526      14.050      13.573      13.149      12.829    
  12.658      12.658      12.829      13.149      13.573      14.050      14.526      14.957      15.316      15.595    
  15.796      15.922      15.980      15.979      15.928      15.833      15.699      15.528      15.317      15.065    
  14.769      14.430      14.055      13.655      13.248      12.862      12.528      12.282      12.151      12.151    
  12.282      12.528      12.862      13.248      13.655      14.055      13.425      13.752      14.054      14.332    
  14.584      14.811      15.009      15.172      15.291      15.353      15.348      15.263      15.093      14.831    
  14.477      14.050      13.588      13.144      12.773      12.527      12.441      12.527      12.773      13.144    
  13.588      14.050      14.477      14.831      15.093      15.263      15.348      15.353      15.291      15.172    
  15.009      14.811      14.584      14.332      14.054      13.752      13.425      13.077      12.714      12.351    
  12.007      11.703      11.464      11.310      11.257      11.310      11.464      11.703      12.007      12.351    
  12.714      13.077      12.423      12.755      13.078      13.391      13.692      13.976      14.235      14.460    
  14.635      14.748      14.783      14.731      14.583      14.331      13.984      13.573      13.144      12.752    
  12.454      12.292      12.292      12.454      12.752      13.144      13.573      13.984      14.331      14.583    
  14.731      14.783      14.748      14.635      14.460      14.235      13.976      13.692      13.391      13.078    
  12.755      12.423      12.083      11.740      11.402      11.080      10.792      10.555      10.386      10.297    
  10.297      10.386      10.555      10.792      11.080      11.402      11.740      12.083      11.460      11.810    
  12.164      12.519      12.869      13.207      13.522      13.799      14.021      14.174      14.243      14.218    
  14.088      13.850      13.524      13.149      12.773      12.454      12.239      12.163      12.239      12.454    
  12.773      13.149      13.524      13.850      14.088      14.218      14.243      14.174      14.021      13.799    
  13.522      13.207      12.869      12.519      12.164      11.810      11.460      11.114      10.775      10.449    
  10.141      9.8633      9.6280      9.4480      9.3349      9.2963      9.3349      9.4480      9.6280      9.8633    
  10.141      10.449      10.775      11.114      10.564      10.941      11.331      11.728      12.126      12.514    
  12.876      13.197      13.459      13.646      13.747      13.749      13.642      13.433      13.148      12.829    
  12.527      12.292      12.163      12.163      12.292      12.527      12.829      13.148      13.433      13.642    
  13.749      13.747      13.646      13.459      13.197      12.876      12.514      12.126      11.728      11.331    
  10.941      10.564      10.202      9.8566      9.5299      9.2264      8.9526      8.7169      8.5289      8.3976    
  8.3300      8.3300      8.3976      8.5289      8.7169      8.9526      9.2264      9.5299      9.8566      10.202    
  9.7555      10.163      10.589      11.028      11.469      11.900      12.304      12.664      12.962      13.184    
  13.320      13.355      13.285      13.123      12.900      12.658      12.441      12.292      12.239      12.292    
  12.441      12.658      12.900      13.123      13.285      13.355      13.320      13.184      12.962      12.664    
  12.304      11.900      11.469      11.028      10.589      10.163      9.7555      9.3705      9.0098      8.6746    
  8.3671      8.0910      7.8517      7.6555      7.5093      7.4189      7.3883      7.4189      7.5093      7.6555    
  7.8517      8.0910      8.3671      8.6746      9.0098      9.3705      9.0426      9.4813      9.9431      10.420    
  10.901      11.371      11.813      12.211      12.547      12.809      12.987      13.068      13.053      12.958    
  12.814      12.658      12.527      12.454      12.454      12.527      12.658      12.814      12.958      13.053    
  13.068      12.987      12.809      12.547      12.211      11.813      11.371      10.901      10.420      9.9431    
  9.4813      9.0426      8.6318      8.2512      7.9017      7.5844      7.3010      7.0545      6.8491      6.6894    
  6.5799      6.5242      6.5242      6.5799      6.6894      6.8491      7.0545      7.3010      7.5844      7.9017    
  8.2512      8.6318      8.4288      8.8982      9.3939      9.9069      10.425      10.933      11.414      11.852    
  12.232      12.543      12.775      12.917      12.973      12.958      12.900      12.829      12.773      12.752    
  12.773      12.829      12.900      12.958      12.973      12.917      12.775      12.543      12.232      11.852    
  11.414      10.933      10.425      9.9069      9.3939      8.8982      8.4288      7.9913      7.5885      7.2215    
  6.8905      6.5961      6.3397      6.1236      5.9508      5.8245      5.7475      5.7216      5.7475      5.8245    
  5.9508      6.1236      6.3397      6.5961      6.8905      7.2215      7.5885      7.9913      7.9128      8.4123    
  8.9409      9.4893      10.045      10.592      11.117      11.602      12.035      12.405      12.702      12.917    
  13.053      13.123      13.148      13.149      13.144      13.144      13.149      13.148      13.123      13.053    
  12.917      12.702      12.405      12.035      11.602      11.117      10.592      10.045      9.4893      8.9409    
  8.4123      7.9128      7.4485      7.0227      6.6364      6.2895      5.9819      5.7137      5.4858      5.3000    
  5.1582      5.0624      5.0141      5.0141      5.0624      5.1582      5.3000      5.4858      5.7137      5.9819    
  6.2895      6.6364      7.0227      7.4485      7.4919      8.0221      8.5847      9.1703      9.7665      10.359    
  10.933      11.473      11.967      12.405      12.775      13.068      13.285      13.433      13.524      13.573    
  13.588      13.573      13.524      13.433      13.285      13.068      12.775      12.405      11.967      11.473    
  10.933      10.359      9.7665      9.1703      8.5847      8.0221      7.4919      7.0004      6.5508      6.1443    
  5.7803      5.4579      5.1767      4.9363      4.7374      4.5811      4.4683      4.4002      4.3775      4.4002    
  4.4683      4.5811      4.7374      4.9363      5.1767      5.4579      5.7803      6.1443      6.5508      7.0004    
  7.1642      7.7274      8.3270      8.9540      9.5963      10.240      10.871      11.473      12.035      12.543    
  12.987      13.355      13.642      13.850      13.984      14.050      14.050      13.984      13.850      13.642    
  13.355      12.987      12.543      12.035      11.473      10.871      10.240      9.5963      8.9540      8.3270    
  7.7274      7.1642      6.6437      6.1690      5.7408      5.3583      5.0202      4.7249      4.4714      4.2595    
  4.0892      3.9609      3.8751      3.8321      3.8321      3.8751      3.9609      4.0892      4.2595      4.4714    
  4.7249      5.0202      5.3583      5.7408      6.1690      6.6437      6.9291      7.5292      8.1707      8.8445    
  9.5389      10.240      10.933      11.602      12.232      12.809      13.320      13.749      14.088      14.331    
  14.477      14.526      14.477      14.331      14.088      13.749      13.320      12.809      12.232      11.602    
  10.933      10.240      9.5389      8.8445      8.1707      7.5292      6.9291      6.3763      5.8736      5.4215    
  5.0188      4.6632      4.3527      4.0855      3.8602      3.6764      3.5336      3.4317      3.3706      3.3502    
  3.3706      3.4317      3.5336      3.6764      3.8602      4.0855      4.3527      4.6632      5.0188      5.4215    
  5.8736      6.3763      6.7874      7.4295      8.1182      8.8445      9.5963      10.359      11.117      11.852    
  12.547      13.184      13.747      14.218      14.583      14.831      14.957      14.957      14.831      14.583    
  14.218      13.747      13.184      12.547      11.852      11.117      10.359      9.5963      8.8445      8.1182    
  7.4295      6.7874      6.1976      5.6629      5.1834      4.7574      4.3821      4.0546      3.7723      3.5331    
  3.3357      3.1789      3.0620      2.9844      2.9458      2.9458      2.9844      3.0620      3.1789      3.3357    
  3.5331      3.7723      4.0546      4.3821      4.7574      5.1834      5.6629      6.1976      6.7399      7.4295    
  8.1707      8.9540      9.7665      10.592      11.414      12.211      12.962      13.646      14.243      14.731    
  15.093      15.316      15.392      15.316      15.093      14.731      14.243      13.646      12.962      12.211    
  11.414      10.592      9.7665      8.9540      8.1707      7.4295      6.7399      6.1080      5.5364      5.0249    
  4.5717      4.1732      3.8261      3.5267      3.2723      3.0605      2.8898      2.7585      2.6657      2.6104    
  2.5920      2.6104      2.6657      2.7585      2.8898      3.0605      3.2723      3.5267      3.8261      4.1732    
  4.5717      5.0249      5.5364      6.1080      6.7874      7.5292      8.3270      9.1703      10.045      10.933    
  11.813      12.664      13.459      14.174      14.783      15.263      15.595      15.765      15.765      15.595    
  15.263      14.783      14.174      13.459      12.664      11.813      10.933      10.045      9.1703      8.3270    
  7.5292      6.7874      6.1080      5.4941      4.9457      4.4604      4.0346      3.6642      3.3449      3.0731    
  2.8457      2.6603      2.5147      2.4073      2.3365      2.3014      2.3014      2.3365      2.4073      2.5147    
  2.6603      2.8457      3.0731      3.3449      3.6642      4.0346      4.4604      4.9457      5.4941      6.1080    
  6.9291      7.7274      8.5847      9.4893      10.425      11.371      12.304      13.197      14.021      14.748    
  15.348      15.796      16.074      16.168      16.074      15.796      15.348      14.748      14.021      13.197    
  12.304      11.371      10.425      9.4893      8.5847      7.7274      6.9291      6.1976      5.5364      4.9457    
  4.4233      3.9655      3.5675      3.2246      2.9325      2.6874      2.4859      2.3253      2.2032      2.1176    
  2.0669      2.0501      2.0669      2.1176      2.2032      2.3253      2.4859      2.6874      2.9325      3.2246    
  3.5675      3.9655      4.4233      4.9457      5.5364      6.1976      7.1642      8.0221      8.9409      9.9069    
  10.901      11.900      12.876      13.799      14.635      15.353      15.922      16.318      16.520      16.520    
  16.318      15.922      15.353      14.635      13.799      12.876      11.900      10.901      9.9069      8.9409    
  8.0221      7.1642      6.3763      5.6629      5.0249      4.4604      3.9655      3.5353      3.1647      2.8487    
  2.5830      2.3634      2.1864      2.0490      1.9485      1.8828      1.8504      1.8504      1.8828      1.9485    
  2.0490      2.1864      2.3634      2.5830      2.8487      3.1647      3.5353      3.9655      4.4604      5.0249    
  5.6629      6.3763      7.4919      8.4123      9.3939      10.420      11.469      12.514      13.522      14.460    
  15.291      15.980      16.498      16.819      16.928      16.819      16.498      15.980      15.291      14.460    
  13.522      12.514      11.469      10.420      9.3939      8.4123      7.4919      6.6437      5.8736      5.1834    
  4.5717      4.0346      3.5675      3.1647      2.8209      2.5311      2.2906      2.0952      1.9411      1.8252    
  1.7445      1.6970      1.6813      1.6970      1.7445      1.8252      1.9411      2.0952      2.2906      2.5311    
  2.8209      3.1647      3.5675      4.0346      4.5717      5.1834      5.8736      6.6437      7.9128      8.8982    
  9.9431      11.028      12.126      13.207      14.235      15.172      15.979      16.621      17.067      17.296    
  17.296      17.067      16.621      15.979      15.172      14.235      13.207      12.126      11.028      9.9431    
  8.8982      7.9128      7.0004      6.1690      5.4215      4.7574      4.1732      3.6642      3.2246      2.8487    
  2.5311      2.2664      2.0500      1.8773      1.7446      1.6483      1.5858      1.5550      1.5550      1.5858    
  1.6483      1.7446      1.8773      2.0500      2.2664      2.5311      2.8487      3.2246      3.6642      4.1732    
  4.7574      5.4215      6.1690      7.0004      8.4288      9.4813      10.589      11.728      12.869      13.976    
  15.009      15.928      16.692      17.266      17.623      17.744      17.623      17.266      16.692      15.928    
  15.009      13.976      12.869      11.728      10.589      9.4813      8.4288      7.4485      6.5508      5.7408    
  5.0188      4.3821      3.8261      3.3449      2.9325      2.5830      2.2906      2.0500      1.8562      1.7048    
  1.5917      1.5135      1.4677      1.4526      1.4677      1.5135      1.5917      1.7048      1.8562      2.0500    
  2.2906      2.5830      2.9325      3.3449      3.8261      4.3821      5.0188      5.7408      6.5508      7.4485    
  9.0426      10.163      11.331      12.519      13.692      14.811      15.833      16.715      17.417      17.906    
  18.157      18.157      17.906      17.417      16.715      15.833      14.811      13.692      12.519      11.331    
  10.163      9.0426      7.9913      7.0227      6.1443      5.3583      4.6632      4.0546      3.5267      3.0731    
  2.6874      2.3634      2.0952      1.8773      1.7048      1.5730      1.4779      1.4164      1.3862      1.3862    
  1.4164      1.4779      1.5730      1.7048      1.8773      2.0952      2.3634      2.6874      3.0731      3.5267    
  4.0546      4.6632      5.3583      6.1443      7.0227      7.9913      9.7555      10.941      12.164      13.391    
  14.584      15.699      16.692      17.518      18.140      18.526      18.657      18.526      18.140      17.518    
  16.692      15.699      14.584      13.391      12.164      10.941      9.7555      8.6318      7.5885      6.6364    
  5.7803      5.0202      4.3527      3.7723      3.2723      2.8457      2.4859      2.1864      1.9411      1.7446    
  1.5917      1.4779      1.3995      1.3537      1.3386      1.3537      1.3995      1.4779      1.5917      1.7446    
  1.9411      2.1864      2.4859      2.8457      3.2723      3.7723      4.3527      5.0202      5.7803      6.6364    
  7.5885      8.6318      10.564      11.810      13.078      14.332      15.528      16.621      17.565      18.317    
  18.841      19.110      19.110      18.841      18.317      17.565      16.621      15.528      14.332      13.078    
  11.810      10.564      9.3705      8.2512      7.2215      6.2895      5.4579      4.7249      4.0855      3.5331    
  3.0605      2.6603      2.3253      2.0490      1.8252      1.6483      1.5135      1.4164      1.3537      1.3229    
  1.3229      1.3537      1.4164      1.5135      1.6483      1.8252      2.0490      2.3253      2.6603      3.0605    
  3.5331      4.0855      4.7249      5.4579      6.2895      7.2215      8.2512      9.3705      11.460      12.755    
  14.054      15.317      16.498      17.550      18.427      19.087      19.497      19.636      19.497      19.087    
  18.427      17.550      16.498      15.317      14.054      12.755      11.460      10.202      9.0098      7.9017    
  6.8905      5.9819      5.1767      4.4714      3.8602      3.3357      2.8898      2.5147      2.2032      1.9485    
  1.7445      1.5858      1.4677      1.3862      1.3386      1.3229      1.3386      1.3862      1.4677      1.5858    
  1.7445      1.9485      2.2032      2.5147      2.8898      3.3357      3.8602      4.4714      5.1767      5.9819    
  6.8905      7.9017      9.0098      10.202      12.423      13.752      15.065      16.318      17.464      18.455    
  19.246      19.798      20.081      20.081      19.798      19.246      18.455      17.464      16.318      15.065    
  13.752      12.423      11.114      9.8566      8.6746      7.5844      6.5961      5.7137      4.9363      4.2595    
  3.6764      3.1789      2.7585      2.4073      2.1176      1.8828      1.6970      1.5550      1.4526      1.3862    
  1.3537      1.3537      1.3862      1.4526      1.5550      1.6970      1.8828      2.1176      2.4073      2.7585    
  3.1789      3.6764      4.2595      4.9363      5.7137      6.5961      7.5844      8.6746      9.8566      11.114    
  13.425      14.769      16.074      17.296      18.387      19.299      19.987      20.414      20.560      20.414    
  19.987      19.299      18.387      17.296      16.074      14.769      13.425      12.083      10.775      9.5299    
  8.3671      7.3010      6.3397      5.4858      4.7374      4.0892      3.5336      3.0620      2.6657      2.3365    
  2.0669      1.8504      1.6813      1.5550      1.4677      1.4164      1.3995      1.4164      1.4677      1.5550    
  1.6813      1.8504      2.0669      2.3365      2.6657      3.0620      3.5336      4.0892      4.7374      5.4858    
  6.3397      7.3010      8.3671      9.5299      10.775      12.083      14.430      15.765      17.040      18.206    
  19.213      20.014      20.572      20.858      20.858      20.572      20.014      19.213      18.206      17.040    
  15.765      14.430      13.077      11.740      10.449      9.2264      8.0910      7.0545      6.1236      5.3000    
  4.5811      3.9609      3.4317      2.9844      2.6104      2.3014      2.0501      1.8504      1.6970      1.5858    
  1.5135      1.4779      1.4779      1.5135      1.5858      1.6970      1.8504      2.0501      2.3014      2.6104    
  2.9844      3.4317      3.9609      4.5811      5.3000      6.1236      7.0545      8.0910      9.2264      10.449    
  11.740      13.077      15.392      16.682      17.879      18.937      19.813      20.470      20.878      21.016    
  20.878      20.470      19.813      18.937      17.879      16.682      15.392      14.055      12.714      11.402    
  10.141      8.9526      7.8517      6.8491      5.9508      5.1582      4.4683      3.8751      3.3706      2.9458    
  2.5920      2.3014      2.0669      1.8828      1.7445      1.6483      1.5917      1.5730      1.5917      1.6483    
  1.7445      1.8828      2.0669      2.3014      2.5920      2.9458      3.3706      3.8751      4.4683      5.1582    
  5.9508      6.8491      7.8517      8.9526      10.141      11.402      12.714      14.055      16.215      17.389    
  18.441      19.336      20.041      20.529      20.779      20.779      20.529      20.041      19.336      18.441    
  17.389      16.215      14.957      13.655      12.351      11.080      9.8633      8.7169      7.6555      6.6894    
  5.8245      5.0624      4.4002      3.8321      3.3502      2.9458      2.6104      2.3365      2.1176      1.9485    
  1.8252      1.7446      1.7048      1.7048      1.7446      1.8252      1.9485      2.1176      2.3365      2.6104    