Name                                    
   5.43100000000000     
     0.500000    0.500000    0.000000
     0.500000    0.000000   -0.500000
     0.000000    0.500000   -0.500000
   Si
     2
Direct
  0.000000  0.000000  0.000000
  0.250000  0.250000  0.250000
 
   56   56   56
 -.81160266136E+01 -.75344265702E+01 -.58522000335E+01 -.32488750258E+01 0.30863644403E-02
 0.35757255488E+01 0.71309581074E+01 0.10365518932E+02 0.13046625720E+02 0.15032279413E+02
 0.16274876171E+02 0.16811088101E+02 0.16743011641E+02 0.16215316254E+02 0.15391739450E+02
 0.14430234191E+02 0.13425295414E+02 0.12422717119E+02 0.11459694593E+02 0.10564415506E+02
 0.97554723877E+01 0.90426236725E+01 0.84287878296E+01 0.79127590110E+01 0.74919159589E+01
 0.71642286887E+01 0.69291443681E+01 0.67873647180E+01 0.67399448562E+01 0.67873647180E+01
 0.69291443681E+01 0.71642286887E+01 0.74919159589E+01 0.79127590110E+01 0.84287878296E+01
 0.90426236725E+01 0.97554723877E+01 0.10564415506E+02 0.11459694593E+02 0.12422717119E+02
 0.13425295414E+02 0.14430234191E+02 0.15391739450E+02 0.16215316254E+02 0.16743011641E+02
 0.16811088101E+02 0.16274876171E+02 0.15032279413E+02 0.13046625720E+02 0.10365518932E+02
 0.71309581074E+01 0.35757255488E+01 0.30863644403E-02 -.32488750258E+01 -.58522000335E+01
 -.75344265702E+01 -.75344265702E+01 -.63456442048E+01 -.40998911968E+01 -.10419579518E+01
 0.25057820142E+01 0.61899998769E+01 0.96757884881E+01 0.12689012769E+02 0.15043852730E+02
 0.16652447123E+02 0.17518605549E+02 0.17720672340E+02 0.17389036636E+02 0.16682396479E+02
 0.15765189213E+02 0.14768994070E+02 0.13752173708E+02 0.12755121963E+02 0.11810359444E+02
 0.10941412591E+02 0.10162787659E+02 0.94812527320E+01 0.88981756085E+01 0.84122891388E+01
 0.80221091986E+01 0.77273710241E+01 0.75292368218E+01 0.74295157601E+01 0.74295157601E+01
 0.75292368218E+01 0.77273710241E+01 0.80221091986E+01 0.84122891388E+01 0.88981756085E+01
 0.94812527320E+01 0.10162787659E+02 0.10941412591E+02 0.11810359444E+02 0.12755121963E+02
 0.13752173708E+02 0.14768994070E+02 0.15765189213E+02 0.16682396479E+02 0.17389036636E+02
 0.17720672340E+02 0.17518605549E+02 0.16652447123E+02 0.15043852730E+02 0.12689012769E+02
 0.96757884881E+01 0.61899998769E+01 0.25057820142E+01 -.10419579518E+01 -.40998911968E+01
 -.63456442048E+01 -.75344265702E+01 -.58522000335E+01 -.40998911968E+01 -.14020427249E+01
 0.19432373232E+01 0.55844474137E+01 0.91685221066E+01 0.12388745299E+02 0.15019490313E+02
 0.16932760557E+02 0.18096981887E+02 0.18562649691E+02 0.18440815671E+02 0.17879381270E+02
 0.17040235104E+02 0.16074287278E+02 0.15064799446E+02 0.14054356886E+02 0.13078362315E+02
 0.12164251112E+02 0.11330863718E+02 0.10588978566E+02 0.99430674087E+01 0.93938545898E+01
 0.89409395592E+01 0.85847059275E+01 0.83270172376E+01 0.81706917133E+01 0.81182483174E+01
 0.81706917133E+01 0.83270172376E+01 0.85847059275E+01 0.89409395592E+01 0.93938545898E+01
 0.99430674087E+01 0.10588978566E+02 0.11330863718E+02 0.12164251112E+02 0.13078362315E+02
 0.14054356886E+02 0.15064799446E+02 0.16074287278E+02 0.17040235104E+02 0.17879381270E+02
 0.18440815671E+02 0.18562649691E+02 0.18096981887E+02 0.16932760557E+02 0.15019490313E+02
 0.12388745299E+02 0.91685221066E+01 0.55844474137E+01 0.19432373232E+01 -.14020427249E+01
 -.40998911968E+01 -.58522000335E+01 -.64596402829E+01 -.32488750258E+01 -.10419579518E+01
 0.19432373232E+01 0.53756744285E+01 0.89005219189E+01 0.12190722621E+02 0.14988130236E+02
 0.17127304901E+02 0.18540514618E+02 0.19247451643E+02 0.19335643371E+02 0.18937252245E+02
 0.18206097657E+02 0.17296424409E+02 0.16317524947E+02 0.15316943279E+02 0.14331540600E+02
 0.13391383064E+02 0.12518808653E+02 0.11728327660E+02 0.11027715860E+02 0.10420160580E+02
 0.99068622703E+01 0.94892725434E+01 0.91702657595E+01 0.89539663762E+01 0.88445171405E+01
 0.88445171405E+01 0.89539663762E+01 0.91702657595E+01 0.94892725434E+01 0.99068622703E+01
 0.10420160580E+02 0.11027715860E+02 0.11728327660E+02 0.12518808653E+02 0.13391383064E+02
 0.14331540600E+02 0.15316943279E+02 0.16317524947E+02 0.17296424409E+02 0.18206097657E+02
 0.18937252245E+02 0.19335643371E+02 0.19247451643E+02 0.18540514618E+02 0.17127304901E+02
 0.14988130236E+02 0.12190722621E+02 0.89005219189E+01 0.53756744285E+01 0.19432373232E+01
 -.10419579518E+01 -.32488750258E+01 -.44218899794E+01 -.44218899794E+01 0.30863644403E-02
 0.25057820142E+01 0.55844474137E+01 0.89005219189E+01 0.12121769495E+02 0.14968143125E+02
 0.17242438244E+02 0.18842219371E+02 0.19754881891E+02 0.20041207077E+02 0.19813456113E+02
 0.19212630359E+02 0.18387497094E+02 0.17463511271E+02 0.16497817058E+02 0.15527533032E+02
 0.14584043585E+02 0.13692075059E+02 0.12869191455E+02 0.12126281167E+02 0.11469182201E+02
 0.10901070480E+02 0.10424853667E+02 0.10044745310E+02 0.97664922644E+01 0.95962839536E+01
 0.95389403453E+01 0.95962839536E+01 0.97664922644E+01 0.10044745310E+02 0.10424853667E+02
 0.10901070480E+02 0.11469182201E+02 0.12126281167E+02 0.12869191455E+02 0.13692075059E+02
 0.14584043585E+02 0.15527533032E+02 0.16497817058E+02 0.17463511271E+02 0.18387497094E+02
 0.19212630359E+02 0.19813456113E+02 0.20041207077E+02 0.19754881891E+02 0.18842219371E+02
 0.17242438244E+02 0.14968143125E+02 0.12121769495E+02 0.89005219189E+01 0.55844474137E+01
 0.25057820142E+01 0.30863644403E-02 -.16312949248E+01 -.21994156152E+01 -.16312949248E+01
 0.35757255488E+01 0.61899998769E+01 0.91685221066E+01 0.12190722621E+02 0.14968143125E+02
 0.17280638893E+02 0.18995233305E+02 0.20067484778E+02 0.20529475340E+02 0.20470271573E+02
 0.20014043873E+02 0.19299178638E+02 0.18454825546E+02 0.17549758116E+02 0.16620682486E+02
 0.15699125324E+02 0.14810996253E+02 0.13975943667E+02 0.13207396728E+02 0.12513676339E+02
 0.11900051871E+02 0.11371131490E+02 0.10932730977E+02 0.10592499740E+02 0.10359064730E+02
 0.10240083514E+02 0.10240083514E+02 0.10359064730E+02 0.10592499740E+02 0.10932730977E+02
 0.11371131490E+02 0.11900051871E+02 0.12513676339E+02 0.13207396728E+02 0.13975943667E+02
 0.14810996253E+02 0.15699125324E+02 0.16620682486E+02 0.17549758116E+02 0.18454825546E+02
 0.19299178638E+02 0.20014043873E+02 0.20470271573E+02 0.20529475340E+02 0.20067484778E+02
 0.18995233305E+02 0.17280638893E+02 0.14968143125E+02 0.12190722621E+02 0.91685221066E+01
 0.61899998769E+01 0.35757255488E+01 0.16303149955E+01 0.59218756286E+00 0.59218756286E+00
 0.16303149955E+01 0.71309581074E+01 0.96757884881E+01 0.12388745299E+02 0.14988130236E+02
 0.17242438244E+02 0.18995233305E+02 0.20173140914E+02 0.20779330028E+02 0.20877528874E+02
 0.20571888069E+02 0.19986653165E+02 0.19245925788E+02 0.18426561584E+02 0.17564925643E+02
 0.16691728199E+02 0.15832913172E+02 0.15009096824E+02 0.14235374911E+02 0.13522021402E+02
 0.12876186404E+02 0.12304173695E+02 0.11813495867E+02 0.11413865037E+02 0.11116635329E+02
 0.10932839711E+02 0.10870580023E+02 0.10932839711E+02 0.11116635329E+02 0.11413865037E+02
 0.11813495867E+02 0.12304173695E+02 0.12876186404E+02 0.13522021402E+02 0.14235374911E+02
 0.15009096824E+02 0.15832913172E+02 0.16691728199E+02 0.17564925643E+02 0.18426561584E+02
 0.19245925788E+02 0.19986653165E+02 0.20571888069E+02 0.20877528874E+02 0.20779330028E+02
 0.20173140914E+02 0.18995233305E+02 0.17242438244E+02 0.14988130236E+02 0.12388745299E+02
 0.96757884881E+01 0.71309581074E+01 0.50466131669E+01 0.36786530811E+01 0.32019594355E+01
 0.36786530811E+01 0.50466131669E+01 0.10365518932E+02 0.12689012769E+02 0.15019490313E+02
 0.17127304901E+02 0.18842219371E+02 0.20067484778E+02 0.20779330028E+02 0.21015563654E+02
 0.20858196880E+02 0.20414375079E+02 0.19797652671E+02 0.19086703566E+02 0.18317201292E+02
 0.17518285799E+02 0.16714935725E+02 0.15927612406E+02 0.15172024917E+02 0.14459569697E+02
 0.13798722170E+02 0.13197159036E+02 0.12663920555E+02 0.12210724215E+02 0.11851748239E+02
 0.11601767276E+02 0.11473210834E+02 0.11473210834E+02 0.11601767276E+02 0.11851748239E+02
 0.12210724215E+02 0.12663920555E+02 0.13197159036E+02 0.13798722170E+02 0.14459569697E+02
 0.15172024917E+02 0.15927612406E+02 0.16714935725E+02 0.17518285799E+02 0.18317201292E+02
 0.19086703566E+02 0.19797652671E+02 0.20414375079E+02 0.20858196880E+02 0.21015563654E+02
 0.20779330028E+02 0.20067484778E+02 0.18842219371E+02 0.17127304901E+02 0.15019490313E+02
 0.12689012769E+02 0.10365518932E+02 0.83089914871E+01 0.67697537827E+01 0.59455624873E+01
 0.59455624873E+01 0.67697537827E+01 0.83089914871E+01 0.13046625720E+02 0.15043852730E+02
 0.16932760557E+02 0.18540514618E+02 0.19754881891E+02 0.20529475340E+02 0.20877528874E+02
 0.20858196880E+02 0.20559566570E+02 0.20081172817E+02 0.19497091475E+02 0.18841049861E+02
 0.18139998614E+02 0.17417129493E+02 0.16691728199E+02 0.15979022597E+02 0.15290514888E+02
 0.14635165555E+02 0.14021377817E+02 0.13459231058E+02 0.12962089435E+02 0.12546762513E+02
 0.12231853439E+02 0.12034631234E+02 0.11967401874E+02 0.12034631234E+02 0.12231853439E+02
 0.12546762513E+02 0.12962089435E+02 0.13459231058E+02 0.14021377817E+02 0.14635165555E+02
 0.15290514888E+02 0.15979022597E+02 0.16691728199E+02 0.17417129493E+02 0.18139998614E+02
 0.18841049861E+02 0.19497091475E+02 0.20081172817E+02 0.20559566570E+02 0.20858196880E+02
 0.20877528874E+02 0.20529475340E+02 0.19754881891E+02 0.18540514618E+02 0.16932760557E+02
 0.15043852730E+02 0.13046625720E+02 0.11155764455E+02 0.95970205413E+01 0.85697751124E+01
 0.82110840995E+01 0.85697751124E+01 0.95970205413E+01 0.11155764455E+02 0.15032279413E+02
 0.16652447123E+02 0.18096981887E+02 0.19247451643E+02 0.20041207077E+02 0.20470271573E+02
 0.20571888069E+02 0.20414375079E+02 0.20081172817E+02 0.19636351904E+02 0.19109958338E+02
 0.18526196874E+02 0.17905813484E+02 0.17266063819E+02 0.16620682486E+02 0.15980215813E+02
 0.15353101129E+02 0.14747564512E+02 0.14173926497E+02 0.13646499745E+02 0.13184168762E+02
 0.12809068513E+02 0.12543359734E+02 0.12405262916E+02 0.12405262916E+02 0.12543359734E+02
 0.12809068513E+02 0.13184168762E+02 0.13646499745E+02 0.14173926497E+02 0.14747564512E+02
 0.15353101129E+02 0.15980215813E+02 0.16620682486E+02 0.17266063819E+02 0.17905813484E+02
 0.18526196874E+02 0.19109958338E+02 0.19636351904E+02 0.20081172817E+02 0.20414375079E+02
 0.20571888069E+02 0.20470271573E+02 0.20041207077E+02 0.19247451643E+02 0.18096981887E+02
 0.16652447123E+02 0.15032279413E+02 0.13400734974E+02 0.11946531755E+02 0.10853033967E+02
 0.10265943469E+02 0.10265943469E+02 0.10853033967E+02 0.11946531755E+02 0.13400734974E+02
 0.16274876171E+02 0.17518605549E+02 0.18562649691E+02 0.19335643371E+02 0.19813456113E+02
 0.20014043873E+02 0.19986653165E+02 0.19797652671E+02 0.19497091475E+02 0.19109958338E+02
 0.18657192420E+02 0.18156573406E+02 0.17622666065E+02 0.17066873619E+02 0.16497817058E+02
 0.15922383373E+02 0.15347588589E+02 0.14782971981E+02 0.14242790379E+02 0.13746978226E+02
 0.13319501825E+02 0.12987073517E+02 0.12775238067E+02 0.12702393851E+02 0.12775238067E+02
 0.12987073517E+02 0.13319501825E+02 0.13746978226E+02 0.14242790379E+02 0.14782971981E+02
 0.15347588589E+02 0.15922383373E+02 0.16497817058E+02 0.17066873619E+02 0.17622666065E+02
 0.18156573406E+02 0.18657192420E+02 0.19109958338E+02 0.19497091475E+02 0.19797652671E+02
 0.19986653165E+02 0.20014043873E+02 0.19813456113E+02 0.19335643371E+02 0.18562649691E+02
 0.17518605549E+02 0.16274876171E+02 0.14946785524E+02 0.13680577313E+02 0.12631722833E+02
 0.11938404774E+02 0.11695958163E+02 0.11938404774E+02 0.12631722833E+02 0.13680577313E+02
 0.14946785524E+02 0.16811088101E+02 0.17720672340E+02 0.18440815671E+02 0.18937252245E+02
 0.19212630359E+02 0.19299178638E+02 0.19245925788E+02 0.19086703566E+02 0.18841049861E+02
 0.18526196874E+02 0.18156573406E+02 0.17743595125E+02 0.17295724760E+02 0.16818888922E+02
 0.16317524947E+02 0.15796436395E+02 0.15263280785E+02 0.14731041078E+02 0.14218121198E+02
 0.13748819682E+02 0.13354544328E+02 0.13068254055E+02 0.12917341585E+02 0.12917341585E+02
 0.13068254055E+02 0.13354544328E+02 0.13748819682E+02 0.14218121198E+02 0.14731041078E+02
 0.15263280785E+02 0.15796436395E+02 0.16317524947E+02 0.16818888922E+02 0.17295724760E+02
 0.17743595125E+02 0.18156573406E+02 0.18526196874E+02 0.18841049861E+02 0.19086703566E+02
 0.19245925788E+02 0.19299178638E+02 0.19212630359E+02 0.18937252245E+02 0.18440815671E+02
 0.17720672340E+02 0.16811088101E+02 0.15784568934E+02 0.14745436429E+02 0.13815573956E+02
 0.13114440928E+02 0.12737406279E+02 0.12737406279E+02 0.13114440928E+02 0.13815573956E+02
 0.14745436429E+02 0.15784568934E+02 0.16743011641E+02 0.17389036636E+02 0.17879381270E+02
 0.18206097657E+02 0.18387497094E+02 0.18454825546E+02 0.18426561584E+02 0.18317201292E+02
 0.18139998614E+02 0.17905813484E+02 0.17622666065E+02 0.17295724760E+02 0.16927720583E+02
 0.16519984126E+02 0.16074287278E+02 0.15595400281E+02 0.15093492431E+02 0.14582978936E+02
 0.14087541497E+02 0.13641631932E+02 0.13284660329E+02 0.13053145545E+02 0.12972874247E+02
 0.13053145545E+02 0.13284660329E+02 0.13641631932E+02 0.14087541497E+02 0.14582978936E+02
 0.15093492431E+02 0.15595400281E+02 0.16074287278E+02 0.16519984126E+02 0.16927720583E+02
 0.17295724760E+02 0.17622666065E+02 0.17905813484E+02 0.18139998614E+02 0.18317201292E+02
 0.18426561584E+02 0.18454825546E+02 0.18387497094E+02 0.18206097657E+02 0.17879381270E+02
 0.17389036636E+02 0.16743011641E+02 0.15979683232E+02 0.15166255751E+02 0.14390646637E+02
 0.13747723680E+02 0.13322453532E+02 0.13173684940E+02 0.13322453532E+02 0.13747723680E+02
 0.14390646637E+02 0.15166255751E+02 0.15979683232E+02 0.16215316254E+02 0.16682396479E+02
 0.17040235104E+02 0.17296424409E+02 0.17463511271E+02 0.17549758116E+02 0.17564925643E+02
 0.17518285799E+02 0.17417129493E+02 0.17266063819E+02 0.17066873619E+02 0.16818888922E+02
 0.16519984126E+02 0.16168374748E+02 0.15765189213E+02 0.15316485279E+02 0.14831389065E+02
 0.14330861307E+02 0.13849961274E+02 0.13432561600E+02 0.13123271182E+02 0.12958434352E+02
 0.12958434352E+02 0.13123271182E+02 0.13432561600E+02 0.13849961274E+02 0.14330861307E+02
 0.14831389065E+02 0.15316485279E+02 0.15765189213E+02 0.16168374748E+02 0.16519984126E+02
 0.16818888922E+02 0.17066873619E+02 0.17266063819E+02 0.17417129493E+02 0.17518285799E+02
 0.17564925643E+02 0.17549758116E+02 0.17463511271E+02 0.17296424409E+02 0.17040235104E+02
 0.16682396479E+02 0.16215316254E+02 0.15652854791E+02 0.15032377864E+02 0.14411314271E+02
 0.13858717928E+02 0.13443250598E+02 0.13220135913E+02 0.13220135913E+02 0.13443250598E+02
 0.13858717928E+02 0.14411314271E+02 0.15032377864E+02 0.15652854791E+02 0.15391739450E+02
 0.15765189213E+02 0.16074287278E+02 0.16317524947E+02 0.16497817058E+02 0.16620682486E+02
 0.16691728199E+02 0.16714935725E+02 0.16691728199E+02 0.16620682486E+02 0.16497817058E+02
 0.16317524947E+02 0.16074287278E+02 0.15765189213E+02 0.15391739450E+02 0.14957078056E+02
 0.14477021462E+02 0.13984322663E+02 0.13524446202E+02 0.13147851916E+02 0.12900399016E+02
 0.12814089473E+02 0.12900399016E+02 0.13147851916E+02 0.13524446202E+02 0.13984322663E+02
 0.14477021462E+02 0.14957078056E+02 0.15391739450E+02 0.15765189213E+02 0.16074287278E+02
 0.16317524947E+02 0.16497817058E+02 0.16620682486E+02 0.16691728199E+02 0.16714935725E+02
 0.16691728199E+02 0.16620682486E+02 0.16497817058E+02 0.16317524947E+02 0.16074287278E+02
 0.15765189213E+02 0.15391739450E+02 0.14957078056E+02 0.14477021462E+02 0.13984322663E+02
 0.13524446202E+02 0.13147851916E+02 0.12900399016E+02 0.12814089473E+02 0.12900399016E+02
 0.13147851916E+02 0.13524446202E+02 0.13984322663E+02 0.14477021462E+02 0.14957078056E+02
 0.14430234191E+02 0.14768994070E+02 0.15064799446E+02 0.15316943279E+02 0.15527533032E+02
 0.15699125324E+02 0.15832913172E+02 0.15927612406E+02 0.15979022597E+02 0.15980215813E+02
 0.15922383373E+02 0.15796436395E+02 0.15595400281E+02 0.15316485279E+02 0.14957078056E+02
 0.14525728653E+02 0.14049885166E+02 0.13573180566E+02 0.13148668587E+02 0.12829309642E+02
 0.12657749711E+02 0.12657749711E+02 0.12829309642E+02 0.13148668587E+02 0.13573180566E+02
 0.14049885166E+02 0.14525728653E+02 0.14957078056E+02 0.15316485279E+02 0.15595400281E+02
 0.15796436395E+02 0.15922383373E+02 0.15980215813E+02 0.15979022597E+02 0.15927612406E+02
 0.15832913172E+02 0.15699125324E+02 0.15527533032E+02 0.15316943279E+02 0.15064799446E+02
 0.14768994070E+02 0.14430234191E+02 0.14054535452E+02 0.13654657294E+02 0.13248274795E+02
 0.12861667886E+02 0.12528235107E+02 0.12282137079E+02 0.12151262926E+02 0.12151262926E+02
 0.12282137079E+02 0.12528235107E+02 0.12861667886E+02 0.13248274795E+02 0.13654657294E+02
 0.14054535452E+02 0.13425295414E+02 0.13752173708E+02 0.14054356886E+02 0.14331540600E+02
 0.14584043585E+02 0.14810996253E+02 0.15009096824E+02 0.15172024917E+02 0.15290514888E+02
 0.15353101129E+02 0.15347588589E+02 0.15263280785E+02 0.15093492431E+02 0.14831389065E+02
 0.14477021462E+02 0.14049885166E+02 0.13588263848E+02 0.13143920542E+02 0.12773359246E+02
 0.12527377213E+02 0.12441187453E+02 0.12527377213E+02 0.12773359246E+02 0.13143920542E+02
 0.13588263848E+02 0.14049885166E+02 0.14477021462E+02 0.14831389065E+02 0.15093492431E+02
 0.15263280785E+02 0.15347588589E+02 0.15353101129E+02 0.15290514888E+02 0.15172024917E+02
 0.15009096824E+02 0.14810996253E+02 0.14584043585E+02 0.14331540600E+02 0.14054356886E+02
 0.13752173708E+02 0.13425295414E+02 0.13076753415E+02 0.12714219552E+02 0.12351130813E+02
 0.12006505384E+02 0.11702986126E+02 0.11463762627E+02 0.11310104351E+02 0.11257073049E+02
 0.11310104351E+02 0.11463762627E+02 0.11702986126E+02 0.12006505384E+02 0.12351130813E+02
 0.12714219552E+02 0.13076753415E+02 0.12422717119E+02 0.12755121963E+02 0.13078362315E+02
 0.13391383064E+02 0.13692075059E+02 0.13975943667E+02 0.14235374911E+02 0.14459569697E+02
 0.14635165555E+02 0.14747564512E+02 0.14782971981E+02 0.14731041078E+02 0.14582978936E+02
 0.14330861307E+02 0.13984322663E+02 0.13573180566E+02 0.13143920542E+02 0.12752338727E+02
 0.12453639822E+02 0.12292018922E+02 0.12292018922E+02 0.12453639822E+02 0.12752338727E+02
 0.13143920542E+02 0.13573180566E+02 0.13984322663E+02 0.14330861307E+02 0.14582978936E+02
 0.14731041078E+02 0.14782971981E+02 0.14747564512E+02 0.14635165555E+02 0.14459569697E+02
 0.14235374911E+02 0.13975943667E+02 0.13692075059E+02 0.13391383064E+02 0.13078362315E+02
 0.12755121963E+02 0.12422717119E+02 0.12082883893E+02 0.11739823634E+02 0.11401565099E+02
 0.11080444127E+02 0.10792417599E+02 0.10555234443E+02 0.10385818534E+02 0.10297457229E+02
 0.10297457229E+02 0.10385818534E+02 0.10555234443E+02 0.10792417599E+02 0.11080444127E+02
 0.11401565099E+02 0.11739823634E+02 0.12082883893E+02 0.11459694593E+02 0.11810359444E+02
 0.12164251112E+02 0.12518808653E+02 0.12869191455E+02 0.13207396728E+02 0.13522021402E+02
 0.13798722170E+02 0.14021377817E+02 0.14173926497E+02 0.14242790379E+02 0.14218121198E+02
 0.14087541497E+02 0.13849961274E+02 0.13524446202E+02 0.13148668587E+02 0.12773359246E+02
 0.12453639822E+02 0.12238883883E+02 0.12163234986E+02 0.12238883883E+02 0.12453639822E+02
 0.12773359246E+02 0.13148668587E+02 0.13524446202E+02 0.13849961274E+02 0.14087541497E+02
 0.14218121198E+02 0.14242790379E+02 0.14173926497E+02 0.14021377817E+02 0.13798722170E+02
 0.13522021402E+02 0.13207396728E+02 0.12869191455E+02 0.12518808653E+02 0.12164251112E+02
 0.11810359444E+02 0.11459694593E+02 0.11113916418E+02 0.10775383479E+02 0.10448592223E+02
 0.10141051983E+02 0.98632966393E+01 0.96279515687E+01 0.94480367179E+01 0.93349004508E+01
 0.92962744318E+01 0.93349004508E+01 0.94480367179E+01 0.96279515687E+01 0.98632966393E+01
 0.10141051983E+02 0.10448592223E+02 0.10775383479E+02 0.11113916418E+02 0.10564415506E+02
 0.10941412591E+02 0.11330863718E+02 0.11728327660E+02 0.12126281167E+02 0.12513676339E+02
 0.12876186404E+02 0.13197159036E+02 0.13459231058E+02 0.13646499745E+02 0.13746978226E+02
 0.13748819682E+02 0.13641631932E+02 0.13432561600E+02 0.13147851916E+02 0.12829309642E+02
 0.12527377213E+02 0.12292018922E+02 0.12163234986E+02 0.12163234986E+02 0.12292018922E+02
 0.12527377213E+02 0.12829309642E+02 0.13147851916E+02 0.13432561600E+02 0.13641631932E+02
 0.13748819682E+02 0.13746978226E+02 0.13646499745E+02 0.13459231058E+02 0.13197159036E+02
 0.12876186404E+02 0.12513676339E+02 0.12126281167E+02 0.11728327660E+02 0.11330863718E+02
 0.10941412591E+02 0.10564415506E+02 0.10202252200E+02 0.98566170273E+01 0.95299295268E+01
 0.92264208011E+01 0.89525976896E+01 0.87169445762E+01 0.85289314069E+01 0.83975832652E+01
 0.83299696821E+01 0.83299696821E+01 0.83975832652E+01 0.85289314069E+01 0.87169445762E+01
 0.89525976896E+01 0.92264208011E+01 0.95299295268E+01 0.98566170273E+01 0.10202252200E+02
 0.97554723877E+01 0.10162787659E+02 0.10588978566E+02 0.11027715860E+02 0.11469182201E+02
 0.11900051871E+02 0.12304173695E+02 0.12663920555E+02 0.12962089435E+02 0.13184168762E+02
 0.13319501825E+02 0.13354544328E+02 0.13284660329E+02 0.13123271182E+02 0.12900399016E+02
 0.12657749711E+02 0.12441187453E+02 0.12292018922E+02 0.12238883883E+02 0.12292018922E+02
 0.12441187453E+02 0.12657749711E+02 0.12900399016E+02 0.13123271182E+02 0.13284660329E+02
 0.13354544328E+02 0.13319501825E+02 0.13184168762E+02 0.12962089435E+02 0.12663920555E+02
 0.12304173695E+02 0.11900051871E+02 0.11469182201E+02 0.11027715860E+02 0.10588978566E+02
 0.10162787659E+02 0.97554723877E+01 0.93705334718E+01 0.90097648562E+01 0.86745613942E+01
 0.83670878706E+01 0.80910175991E+01 0.78516666549E+01 0.76555199506E+01 0.75093091915E+01
 0.74189046274E+01 0.73882985710E+01 0.74189046274E+01 0.75093091915E+01 0.76555199506E+01
 0.78516666549E+01 0.80910175991E+01 0.83670878706E+01 0.86745613942E+01 0.90097648562E+01
 0.93705334718E+01 0.90426236725E+01 0.94812527320E+01 0.99430674087E+01 0.10420160580E+02
 0.10901070480E+02 0.11371131490E+02 0.11813495867E+02 0.12210724215E+02 0.12546762513E+02
 0.12809068513E+02 0.12987073517E+02 0.13068254055E+02 0.13053145545E+02 0.12958434352E+02
 0.12814089473E+02 0.12657749711E+02 0.12527377213E+02 0.12453639822E+02 0.12453639822E+02
 0.12527377213E+02 0.12657749711E+02 0.12814089473E+02 0.12958434352E+02 0.13053145545E+02
 0.13068254055E+02 0.12987073517E+02 0.12809068513E+02 0.12546762513E+02 0.12210724215E+02
 0.11813495867E+02 0.11371131490E+02 0.10901070480E+02 0.10420160580E+02 0.99430674087E+01
 0.94812527320E+01 0.90426236725E+01 0.86318469244E+01 0.82512004368E+01 0.79017275759E+01
 0.75843981381E+01 0.73009924683E+01 0.70545144883E+01 0.68490820257E+01 0.66893894625E+01
 0.65799370926E+01 0.65242470027E+01 0.65242470027E+01 0.65799370926E+01 0.66893894625E+01
 0.68490820257E+01 0.70545144883E+01 0.73009924683E+01 0.75843981381E+01 0.79017275759E+01
 0.82512004368E+01 0.86318469244E+01 0.84287878296E+01 0.88981756085E+01 0.93938545898E+01
 0.99068622703E+01 0.10424853667E+02 0.10932730977E+02 0.11413865037E+02 0.11851748239E+02
 0.12231853439E+02 0.12543359734E+02 0.12775238067E+02 0.12917341585E+02 0.12972874247E+02
 0.12958434352E+02 0.12900399016E+02 0.12829309642E+02 0.12773359246E+02 0.12752338727E+02
 0.12773359246E+02 0.12829309642E+02 0.12900399016E+02 0.12958434352E+02 0.12972874247E+02
 0.12917341585E+02 0.12775238067E+02 0.12543359734E+02 0.12231853439E+02 0.11851748239E+02
 0.11413865037E+02 0.10932730977E+02 0.10424853667E+02 0.99068622703E+01 0.93938545898E+01
 0.88981756085E+01 0.84287878296E+01 0.79912885166E+01 0.75885014009E+01 0.72214522682E+01
 0.68904627392E+01 0.65960893775E+01 0.63397021439E+01 0.61236178275E+01 0.59508381710E+01
 0.58245405304E+01 0.57475009920E+01 0.57215999845E+01 0.57475009920E+01 0.58245405304E+01
 0.59508381710E+01 0.61236178275E+01 0.63397021439E+01 0.65960893775E+01 0.68904627392E+01
 0.72214522682E+01 0.75885014009E+01 0.79912885166E+01 0.79127590110E+01 0.84122891388E+01
 0.89409395592E+01 0.94892725434E+01 0.10044745310E+02 0.10592499740E+02 0.11116635329E+02
 0.11601767276E+02 0.12034631234E+02 0.12405262916E+02 0.12702393851E+02 0.12917341585E+02
 0.13053145545E+02 0.13123271182E+02 0.13147851916E+02 0.13148668587E+02 0.13143920542E+02
 0.13143920542E+02 0.13148668587E+02 0.13147851916E+02 0.13123271182E+02 0.13053145545E+02
 0.12917341585E+02 0.12702393851E+02 0.12405262916E+02 0.12034631234E+02 0.11601767276E+02
 0.11116635329E+02 0.10592499740E+02 0.10044745310E+02 0.94892725434E+01 0.89409395592E+01
 0.84122891388E+01 0.79127590110E+01 0.74484823153E+01 0.70226601014E+01 0.66363624850E+01
 0.62895263794E+01 0.59818924398E+01 0.57136704384E+01 0.54858259110E+01 0.53000049187E+01
 0.51582121547E+01 0.50623967539E+01 0.50140769395E+01 0.50140769395E+01 0.50623967539E+01
 0.51582121547E+01 0.53000049187E+01 0.54858259110E+01 0.57136704384E+01 0.59818924398E+01
 0.62895263794E+01 0.66363624850E+01 0.70226601014E+01 0.74484823153E+01 0.74919159589E+01
 0.80221091986E+01 0.85847059275E+01 0.91702657595E+01 0.97664922644E+01 0.10359064730E+02
 0.10932839711E+02 0.11473210834E+02 0.11967401874E+02 0.12405262916E+02 0.12775238067E+02
 0.13068254055E+02 0.13284660329E+02 0.13432561600E+02 0.13524446202E+02 0.13573180566E+02
 0.13588263848E+02 0.13573180566E+02 0.13524446202E+02 0.13432561600E+02 0.13284660329E+02
 0.13068254055E+02 0.12775238067E+02 0.12405262916E+02 0.11967401874E+02 0.11473210834E+02
 0.10932839711E+02 0.10359064730E+02 0.97664922644E+01 0.91702657595E+01 0.85847059275E+01
 0.80221091986E+01 0.74919159589E+01 0.70003899319E+01 0.65508358659E+01 0.61442572677E+01
 0.57802578505E+01 0.54579494484E+01 0.51766571545E+01 0.49362991947E+01 0.47374333919E+01
 0.45810611020E+01 0.44683268306E+01 0.44002366372E+01 0.43774619454E+01 0.44002366372E+01
 0.44683268306E+01 0.45810611020E+01 0.47374333919E+01 0.49362991947E+01 0.51766571545E+01
 0.54579494484E+01 0.57802578505E+01 0.61442572677E+01 0.65508358659E+01 0.70003899319E+01
 0.71642286887E+01 0.77273710241E+01 0.83270172376E+01 0.89539663762E+01 0.95962839536E+01
 0.10240083514E+02 0.10870580023E+02 0.11473210834E+02 0.12034631234E+02 0.12543359734E+02
 0.12987073517E+02 0.13354544328E+02 0.13641631932E+02 0.13849961274E+02 0.13984322663E+02
 0.14049885166E+02 0.14049885166E+02 0.13984322663E+02 0.13849961274E+02 0.13641631932E+02
 0.13354544328E+02 0.12987073517E+02 0.12543359734E+02 0.12034631234E+02 0.11473210834E+02
 0.10870580023E+02 0.10240083514E+02 0.95962839536E+01 0.89539663762E+01 0.83270172376E+01
 0.77273710241E+01 0.71642286887E+01 0.66437047120E+01 0.61689615114E+01 0.57407708280E+01
 0.53583400124E+01 0.50201886802E+01 0.47248731350E+01 0.44714266636E+01 0.42594878016E+01
 0.40891872364E+01 0.39609198654E+01 0.38751240801E+01 0.38321380434E+01 0.38321380434E+01
 0.38751240801E+01 0.39609198654E+01 0.40891872364E+01 0.42594878016E+01 0.44714266636E+01
 0.47248731350E+01 0.50201886802E+01 0.53583400124E+01 0.57407708280E+01 0.61689615114E+01
 0.66437047120E+01 0.69291443681E+01 0.75292368218E+01 0.81706917133E+01 0.88445171405E+01
 0.95389403453E+01 0.10240083514E+02 0.10932839711E+02 0.11601767276E+02 0.12231853439E+02
 0.12809068513E+02 0.13319501825E+02 0.13748819682E+02 0.14087541497E+02 0.14330861307E+02
 0.14477021462E+02 0.14525728653E+02 0.14477021462E+02 0.14330861307E+02 0.14087541497E+02
 0.13748819682E+02 0.13319501825E+02 0.12809068513E+02 0.12231853439E+02 0.11601767276E+02
 0.10932839711E+02 0.10240083514E+02 0.95389403453E+01 0.88445171405E+01 0.81706917133E+01
 0.75292368218E+01 0.69291443681E+01 0.63763058389E+01 0.58736252482E+01 0.54215324662E+01
 0.50187646487E+01 0.46632241150E+01 0.43527201121E+01 0.40854578747E+01 0.38602311319E+01
 0.36763701115E+01 0.35335601940E+01 0.34316542746E+01 0.33705582172E+01 0.33502021268E+01
 0.33705582172E+01 0.34316542746E+01 0.35335601940E+01 0.36763701115E+01 0.38602311319E+01
 0.40854578747E+01 0.43527201121E+01 0.46632241150E+01 0.50187646487E+01 0.54215324662E+01
 0.58736252482E+01 0.63763058389E+01 0.67873647180E+01 0.74295157601E+01 0.81182483174E+01
 0.88445171405E+01 0.95962839536E+01 0.10359064730E+02 0.11116635329E+02 0.11851748239E+02
 0.12546762513E+02 0.13184168762E+02 0.13746978226E+02 0.14218121198E+02 0.14582978936E+02
 0.14831389065E+02 0.14957078056E+02 0.14957078056E+02 0.14831389065E+02 0.14582978936E+02
 0.14218121198E+02 0.13746978226E+02 0.13184168762E+02 0.12546762513E+02 0.11851748239E+02
 0.11116635329E+02 0.10359064730E+02 0.95962839536E+01 0.88445171405E+01 0.81182483174E+01
 0.74295157601E+01 0.67873647180E+01 0.61976006982E+01 0.56629247190E+01 0.51834371057E+01
 0.47574018141E+01 0.43821012159E+01 0.40546010070E+01 0.37722879491E+01 0.35331241100E+01
 0.33356518144E+01 0.31788509233E+01 0.30619699660E+01 0.29844212555E+01 0.29457674943E+01
 0.29457674943E+01 0.29844212555E+01 0.30619699660E+01 0.31788509233E+01 0.33356518144E+01
 0.35331241100E+01 0.37722879491E+01 0.40546010070E+01 0.43821012159E+01 0.47574018141E+01
 0.51834371057E+01 0.56629247190E+01 0.61976006982E+01 0.67399448562E+01 0.74295157601E+01
 0.81706917133E+01 0.89539663762E+01 0.97664922644E+01 0.10592499740E+02 0.11413865037E+02
 0.12210724215E+02 0.12962089435E+02 0.13646499745E+02 0.14242790379E+02 0.14731041078E+02
 0.15093492431E+02 0.15316485279E+02 0.15391739450E+02 0.15316485279E+02 0.15093492431E+02
 0.14731041078E+02 0.14242790379E+02 0.13646499745E+02 0.12962089435E+02 0.12210724215E+02
 0.11413865037E+02 0.10592499740E+02 0.97664922644E+01 0.89539663762E+01 0.81706917133E+01
 0.74295157601E+01 0.67399448562E+01 0.61079902167E+01 0.55363536715E+01 0.50249489580E+01
 0.45716689892E+01 0.41732488001E+01 0.38260578017E+01 0.35266874057E+01 0.32722693555E+01
 0.30605428152E+01 0.28897559821E+01 0.27585170635E+01 0.26656914853E+01 0.26103890489E+01
 0.25920237057E+01 0.26103890489E+01 0.26656914853E+01 0.27585170635E+01 0.28897559821E+01
 0.30605428152E+01 0.32722693555E+01 0.35266874057E+01 0.38260578017E+01 0.41732488001E+01
 0.45716689892E+01 0.50249489580E+01 0.55363536715E+01 0.61079902167E+01 0.67873647180E+01
 0.75292368218E+01 0.83270172376E+01 0.91702657595E+01 0.10044745310E+02 0.10932730977E+02