   2   2   1   0
  0.2002393E+02  0.3840297E-09  0.3840297E-09  0.3840297E-09  0.5000000E-15
  1.000000000000000E-004
  CAR 
 Name                                    
     18.23906287     -9.03587270  301      5.61304061      1.00000000
     -9.036  0.0000E+00  0.0000E+00
     -8.945  0.0000E+00  0.0000E+00
     -8.854  0.0000E+00  0.0000E+00
     -8.763  0.0000E+00  0.0000E+00
     -8.672  0.0000E+00  0.0000E+00
     -8.581  0.0000E+00  0.0000E+00
     -8.490  0.0000E+00  0.0000E+00
     -8.399  0.0000E+00  0.0000E+00
     -8.309  0.0000E+00  0.0000E+00
     -8.218  0.0000E+00  0.0000E+00
     -8.127  0.0000E+00  0.0000E+00
     -8.036  0.0000E+00  0.0000E+00
     -7.945  0.0000E+00  0.0000E+00
     -7.854  0.1796E-16  0.1633E-17
     -7.763  0.1078E+00  0.9804E-02
     -7.672  0.0000E+00  0.9804E-02
     -7.581  0.0000E+00  0.9804E-02
     -7.490  0.0000E+00  0.9804E-02
     -7.399  0.2508E+00  0.3260E-01
     -7.308  0.8914E-12  0.8824E-01
     -7.218  0.6470E+00  0.1471E+00
     -7.127  0.0000E+00  0.1471E+00
     -7.036  0.0000E+00  0.1471E+00
     -6.945  0.0000E+00  0.1471E+00
     -6.854  0.0000E+00  0.1471E+00
     -6.763  0.1933E-02  0.1472E+00
     -6.672  0.1292E+01  0.2647E+00
     -6.581  0.0000E+00  0.2647E+00
     -6.490  0.0000E+00  0.2647E+00
     -6.399  0.5084E-10  0.2647E+00
     -6.308  0.2588E+01  0.5000E+00
     -6.217  0.8627E+00  0.5784E+00
     -6.127  0.0000E+00  0.5784E+00
     -6.036  0.0000E+00  0.5784E+00
     -5.945  0.0000E+00  0.5784E+00
     -5.854  0.0000E+00  0.5784E+00
     -5.763  0.0000E+00  0.5784E+00
     -5.672  0.5376E+00  0.6273E+00
     -5.581  0.0000E+00  0.6373E+00
     -5.490  0.2459E-06  0.6373E+00
     -5.399  0.2588E+01  0.8725E+00
     -5.308  0.0000E+00  0.8725E+00
     -5.217  0.2592E+01  0.1108E+01
     -5.126  0.4279E+00  0.1147E+01
     -5.036  0.1002E+00  0.1156E+01
     -4.945  0.2488E+01  0.1382E+01
     -4.854  0.0000E+00  0.1382E+01
     -4.763  0.0000E+00  0.1382E+01
     -4.672  0.0000E+00  0.1382E+01
     -4.581  0.0000E+00  0.1382E+01
     -4.490  0.0000E+00  0.1382E+01
     -4.399  0.4659E-02  0.1383E+01
     -4.308  0.2583E+01  0.1618E+01
     -4.217  0.7183E-16  0.1618E+01
     -4.126  0.3878E+01  0.1970E+01
     -4.035  0.0000E+00  0.1971E+01
     -3.945  0.0000E+00  0.1971E+01
     -3.854  0.0000E+00  0.1971E+01
     -3.763  0.0000E+00  0.1971E+01
     -3.672  0.0000E+00  0.1971E+01
     -3.581  0.0000E+00  0.1971E+01
     -3.490  0.0000E+00  0.1971E+01
     -3.399  0.0000E+00  0.1971E+01
     -3.308  0.0000E+00  0.1971E+01
     -3.217  0.1090E-09  0.1971E+01
     -3.126  0.6470E+00  0.2029E+01
     -3.035  0.0000E+00  0.2029E+01
     -2.944  0.0000E+00  0.2029E+01
     -2.854  0.0000E+00  0.2029E+01
     -2.763  0.0000E+00  0.2029E+01
     -2.672  0.0000E+00  0.2029E+01
     -2.581  0.0000E+00  0.2029E+01
     -2.490  0.0000E+00  0.2029E+01
     -2.399  0.0000E+00  0.2029E+01
     -2.308  0.0000E+00  0.2029E+01
     -2.217  0.3077E+00  0.2057E+01
     -2.126  0.1504E-09  0.2069E+01
     -2.035  0.2588E+01  0.2304E+01
     -1.944  0.1294E+01  0.2422E+01
     -1.853  0.3566E-08  0.2422E+01
     -1.763  0.4612E+01  0.2841E+01
     -1.672  0.0000E+00  0.2892E+01
     -1.581  0.0000E+00  0.2892E+01
     -1.490  0.0000E+00  0.2892E+01
     -1.399  0.0000E+00  0.2892E+01
     -1.308  0.0000E+00  0.2892E+01
     -1.217  0.0000E+00  0.2892E+01
     -1.126  0.2396E+01  0.3110E+01
     -1.035  0.0000E+00  0.3127E+01
     -0.944  0.0000E+00  0.3127E+01
     -0.853  0.0000E+00  0.3127E+01
     -0.762  0.2299E-04  0.3127E+01
     -0.672  0.2588E+01  0.3363E+01
     -0.581  0.0000E+00  0.3363E+01
     -0.490  0.0000E+00  0.3363E+01
     -0.399  0.6797E-03  0.3363E+01
     -0.308  0.8620E+00  0.3441E+01
     -0.217  0.0000E+00  0.3441E+01
     -0.126  0.0000E+00  0.3441E+01
     -0.035  0.1640E-02  0.3441E+01
      0.056  0.6454E+00  0.3500E+01
      0.147  0.0000E+00  0.3500E+01
      0.238  0.0000E+00  0.3500E+01
      0.329  0.0000E+00  0.3500E+01
      0.419  0.0000E+00  0.3500E+01
      0.510  0.0000E+00  0.3500E+01
      0.601  0.2067E-04  0.3500E+01
      0.692  0.3877E+01  0.3853E+01
      0.783  0.0000E+00  0.3853E+01
      0.874  0.0000E+00  0.3853E+01
      0.965  0.0000E+00  0.3853E+01
      1.056  0.0000E+00  0.3853E+01
      1.147  0.2587E+01  0.4088E+01
      1.238  0.0000E+00  0.4088E+01
      1.329  0.0000E+00  0.4088E+01
      1.420  0.5641E-02  0.4089E+01
      1.510  0.1289E+01  0.4206E+01
      1.601  0.2678E+01  0.4449E+01
      1.692  0.2498E+01  0.4676E+01
      1.783  0.0000E+00  0.4676E+01
      1.874  0.0000E+00  0.4676E+01
      1.965  0.0000E+00  0.4676E+01
      2.056  0.0000E+00  0.4676E+01
      2.147  0.3912E-12  0.4676E+01
      2.238  0.2588E+01  0.4912E+01
      2.329  0.4669E-02  0.4912E+01
      2.420  0.6423E+00  0.4971E+01
      2.511  0.4969E+01  0.5422E+01
      2.601  0.0000E+00  0.5441E+01
      2.692  0.2373E+01  0.5657E+01
      2.783  0.0000E+00  0.5676E+01
      2.874  0.1294E+01  0.5794E+01
      2.965  0.2156E+01  0.5990E+01
      3.056  0.2588E+01  0.6225E+01
      3.147  0.4628E-04  0.6225E+01
      3.238  0.1294E+01  0.6343E+01
      3.329  0.5108E+00  0.6390E+01
      3.420  0.2588E+01  0.6637E+01
      3.511  0.3150E-07  0.6637E+01
      3.602  0.4327E+01  0.7031E+01
      3.692  0.0000E+00  0.7108E+01
      3.783  0.0000E+00  0.7108E+01
      3.874  0.0000E+00  0.7108E+01
      3.965  0.0000E+00  0.7108E+01
      4.056  0.3522E-02  0.7108E+01
      4.147  0.2585E+01  0.7343E+01
      4.238  0.2119E+01  0.7536E+01
      4.329  0.0000E+00  0.7539E+01
      4.420  0.1692E+01  0.7693E+01
      4.511  0.0000E+00  0.7696E+01
      4.602  0.0000E+00  0.7696E+01
      4.693  0.0000E+00  0.7696E+01
      4.783  0.0000E+00  0.7696E+01
      4.874  0.1341E+00  0.7708E+01
      4.965  0.3831E-15  0.7814E+01
      5.056  0.1725E+01  0.7971E+01
      5.147  0.0000E+00  0.7971E+01
      5.238  0.0000E+00  0.7971E+01
      5.329  0.0000E+00  0.7971E+01
      5.420  0.0000E+00  0.7971E+01
      5.511  0.3135E+00  0.7999E+01
      5.602  0.0000E+00  0.8000E+01
      5.693  0.0000E+00  0.8000E+01
      5.784  0.0000E+00  0.8000E+01
      5.874  0.0000E+00  0.8000E+01
      5.965  0.0000E+00  0.8000E+01
      6.056  0.0000E+00  0.8000E+01
      6.147  0.0000E+00  0.8000E+01
      6.238  0.0000E+00  0.8000E+01
      6.329  0.0000E+00  0.8000E+01
      6.420  0.0000E+00  0.8000E+01
      6.511  0.0000E+00  0.8000E+01
      6.602  0.0000E+00  0.8000E+01
      6.693  0.0000E+00  0.8000E+01
      6.784  0.1398E+00  0.8013E+01
      6.875  0.6426E+00  0.8118E+01
      6.965  0.0000E+00  0.8118E+01
      7.056  0.0000E+00  0.8118E+01
      7.147  0.6220E-02  0.8118E+01
      7.238  0.2582E+01  0.8353E+01
      7.329  0.0000E+00  0.8353E+01
      7.420  0.0000E+00  0.8353E+01
      7.511  0.0000E+00  0.8353E+01
      7.602  0.0000E+00  0.8353E+01
      7.693  0.5499E-03  0.8353E+01
      7.784  0.1725E+01  0.8510E+01
      7.875  0.6419E+00  0.8568E+01
      7.966  0.7872E-01  0.8576E+01
      8.056  0.0000E+00  0.8647E+01
      8.147  0.2625E+01  0.8886E+01
      8.238  0.3010E+01  0.9159E+01
      8.329  0.0000E+00  0.9176E+01
      8.420  0.0000E+00  0.9176E+01
      8.511  0.0000E+00  0.9176E+01
      8.602  0.6347E+00  0.9234E+01
      8.693  0.1739E+01  0.9413E+01
      8.784  0.1137E-03  0.9490E+01
      8.875  0.3234E+00  0.9520E+01
      8.966  0.2588E+01  0.9755E+01
      9.057  0.3397E-01  0.9758E+01
      9.147  0.2554E+01  0.9990E+01
      9.238  0.0000E+00  0.9990E+01
      9.329  0.7858E-05  0.9990E+01
      9.420  0.1294E+01  0.1011E+02
      9.511  0.1694E+01  0.1026E+02
      9.602  0.2588E+01  0.1050E+02
      9.693  0.8626E+00  0.1058E+02
      9.784  0.5150E-04  0.1058E+02
      9.875  0.3605E+01  0.1091E+02
      9.966  0.3439E+01  0.1129E+02
     10.057  0.5183E-05  0.1133E+02
     10.147  0.1294E+01  0.1145E+02
     10.238  0.0000E+00  0.1145E+02
     10.329  0.0000E+00  0.1145E+02
     10.420  0.2119E+01  0.1164E+02
     10.511  0.2572E+01  0.1216E+02
     10.602  0.1253E+01  0.1227E+02
     10.693  0.3254E+01  0.1269E+02
     10.784  0.1262E+01  0.1280E+02
     10.875  0.2583E+01  0.1304E+02
     10.966  0.2737E-06  0.1304E+02
     11.057  0.2588E+01  0.1327E+02
     11.148  0.0000E+00  0.1327E+02
     11.238  0.0000E+00  0.1327E+02
     11.329  0.0000E+00  0.1327E+02
     11.420  0.0000E+00  0.1327E+02
     11.511  0.2550E+01  0.1351E+02
     11.602  0.0000E+00  0.1351E+02
     11.693  0.0000E+00  0.1351E+02
     11.784  0.0000E+00  0.1351E+02
     11.875  0.0000E+00  0.1351E+02
     11.966  0.8621E+00  0.1359E+02
     12.057  0.7902E-15  0.1359E+02
     12.148  0.1294E+01  0.1371E+02
     12.239  0.1294E+01  0.1382E+02
     12.329  0.0000E+00  0.1382E+02
     12.420  0.0000E+00  0.1382E+02
     12.511  0.2054E-04  0.1382E+02
     12.602  0.2588E+01  0.1406E+02
     12.693  0.0000E+00  0.1406E+02
     12.784  0.0000E+00  0.1406E+02
     12.875  0.4734E-09  0.1406E+02
     12.966  0.2588E+01  0.1429E+02
     13.057  0.5638E+00  0.1435E+02
     13.148  0.2562E+01  0.1465E+02
     13.239  0.0000E+00  0.1465E+02
     13.330  0.0000E+00  0.1465E+02
     13.420  0.0000E+00  0.1465E+02
     13.511  0.0000E+00  0.1465E+02
     13.602  0.3828E-07  0.1465E+02
     13.693  0.3882E+01  0.1500E+02
     13.784  0.0000E+00  0.1500E+02
     13.875  0.3382E+01  0.1531E+02
     13.966  0.0000E+00  0.1535E+02
     14.057  0.2014E+01  0.1554E+02
     14.148  0.3019E+01  0.1586E+02
     14.239  0.0000E+00  0.1586E+02
     14.330  0.2382E-02  0.1586E+02
     14.421  0.8603E+00  0.1594E+02
     14.511  0.0000E+00  0.1594E+02
     14.602  0.0000E+00  0.1594E+02
     14.693  0.0000E+00  0.1594E+02
     14.784  0.0000E+00  0.1594E+02
     14.875  0.0000E+00  0.1594E+02
     14.966  0.0000E+00  0.1594E+02
     15.057  0.0000E+00  0.1594E+02
     15.148  0.0000E+00  0.1594E+02
     15.239  0.0000E+00  0.1594E+02
     15.330  0.0000E+00  0.1594E+02
     15.421  0.0000E+00  0.1594E+02
     15.512  0.0000E+00  0.1594E+02
     15.602  0.0000E+00  0.1594E+02
     15.693  0.0000E+00  0.1594E+02
     15.784  0.0000E+00  0.1594E+02
     15.875  0.0000E+00  0.1594E+02
     15.966  0.0000E+00  0.1594E+02
     16.057  0.0000E+00  0.1594E+02
     16.148  0.0000E+00  0.1594E+02
     16.239  0.0000E+00  0.1594E+02
     16.330  0.0000E+00  0.1594E+02
     16.421  0.0000E+00  0.1594E+02
     16.512  0.0000E+00  0.1594E+02
     16.603  0.0000E+00  0.1594E+02
     16.693  0.0000E+00  0.1594E+02
     16.784  0.0000E+00  0.1594E+02
     16.875  0.0000E+00  0.1594E+02
     16.966  0.1509E-01  0.1594E+02
     17.057  0.6319E+00  0.1600E+02
     17.148  0.0000E+00  0.1600E+02
     17.239  0.0000E+00  0.1600E+02
     17.330  0.0000E+00  0.1600E+02
     17.421  0.0000E+00  0.1600E+02
     17.512  0.0000E+00  0.1600E+02
     17.603  0.0000E+00  0.1600E+02
     17.694  0.0000E+00  0.1600E+02
     17.784  0.0000E+00  0.1600E+02
     17.875  0.0000E+00  0.1600E+02
     17.966  0.0000E+00  0.1600E+02
     18.057  0.0000E+00  0.1600E+02
     18.148  0.0000E+00  0.1600E+02
     18.239  0.0000E+00  0.1600E+02
     18.23906287     -9.03587270  301      5.61304061      1.00000000
     -9.036  0.0000E+00  0.0000E+00  0.0000E+00
     -8.945  0.0000E+00  0.0000E+00  0.0000E+00
     -8.854  0.0000E+00  0.0000E+00  0.0000E+00
     -8.763  0.0000E+00  0.0000E+00  0.0000E+00
     -8.672  0.0000E+00  0.0000E+00  0.0000E+00
     -8.581  0.0000E+00  0.0000E+00  0.0000E+00
     -8.490  0.0000E+00  0.0000E+00  0.0000E+00
     -8.399  0.0000E+00  0.0000E+00  0.0000E+00
     -8.309  0.0000E+00  0.0000E+00  0.0000E+00
     -8.218  0.0000E+00  0.0000E+00  0.0000E+00
     -8.127  0.0000E+00  0.0000E+00  0.0000E+00
     -8.036  0.0000E+00  0.0000E+00  0.0000E+00
     -7.945  0.0000E+00  0.0000E+00  0.0000E+00
     -7.854  0.3942E-17  0.1970E-31  0.0000E+00
     -7.763  0.2367E-01  0.1183E-15  0.0000E+00
     -7.672  0.0000E+00  0.0000E+00  0.0000E+00
     -7.581  0.0000E+00  0.0000E+00  0.0000E+00
     -7.490  0.0000E+00  0.0000E+00  0.0000E+00
     -7.399  0.5457E-01  0.9901E-03  0.0000E+00
     -7.308  0.1932E-12  0.4854E-14  0.0000E+00
     -7.218  0.1402E+00  0.3523E-02  0.0000E+00
     -7.127  0.0000E+00  0.0000E+00  0.0000E+00
     -7.036  0.0000E+00  0.0000E+00  0.0000E+00
     -6.945  0.0000E+00  0.0000E+00  0.0000E+00
     -6.854  0.0000E+00  0.0000E+00  0.0000E+00
     -6.763  0.4160E-03  0.1946E-04  0.0000E+00
     -6.672  0.2780E+00  0.1301E-01  0.0000E+00
     -6.581  0.0000E+00  0.0000E+00  0.0000E+00
     -6.490  0.0000E+00  0.0000E+00  0.0000E+00
     -6.399  0.1086E-10  0.7008E-12  0.0000E+00
     -6.308  0.5529E+00  0.3567E-01  0.0000E+00
     -6.217  0.1865E+00  0.1125E-01  0.0000E+00
     -6.127  0.0000E+00  0.0000E+00  0.0000E+00
     -6.036  0.0000E+00  0.0000E+00  0.0000E+00
     -5.945  0.0000E+00  0.0000E+00  0.0000E+00
     -5.854  0.0000E+00  0.0000E+00  0.0000E+00
     -5.763  0.0000E+00  0.0000E+00  0.0000E+00
     -5.672  0.1123E+00  0.1148E-01  0.0000E+00
     -5.581  0.0000E+00  0.0000E+00  0.0000E+00
     -5.490  0.5334E-07  0.4677E-08  0.0000E+00
     -5.399  0.5614E+00  0.4922E-01  0.0000E+00
     -5.308  0.0000E+00  0.0000E+00  0.0000E+00
     -5.217  0.5485E+00  0.6036E-01  0.0000E+00
     -5.126  0.9848E-01  0.6118E-02  0.0000E+00
     -5.036  0.2222E-01  0.2002E-02  0.0000E+00
     -4.945  0.5520E+00  0.4973E-01  0.0000E+00
     -4.854  0.0000E+00  0.0000E+00  0.0000E+00
     -4.763  0.0000E+00  0.0000E+00  0.0000E+00
     -4.672  0.0000E+00  0.0000E+00  0.0000E+00
     -4.581  0.0000E+00  0.0000E+00  0.0000E+00
     -4.490  0.0000E+00  0.0000E+00  0.0000E+00
     -4.399  0.9667E-03  0.1501E-03  0.0000E+00
     -4.308  0.5360E+00  0.8325E-01  0.0000E+00
     -4.217  0.1569E-16  0.2087E-17  0.0000E+00
     -4.126  0.8505E+00  0.1111E+00  0.0000E+00
     -4.035  0.0000E+00  0.0000E+00  0.0000E+00
     -3.945  0.0000E+00  0.0000E+00  0.0000E+00
     -3.854  0.0000E+00  0.0000E+00  0.0000E+00
     -3.763  0.0000E+00  0.0000E+00  0.0000E+00
     -3.672  0.0000E+00  0.0000E+00  0.0000E+00
     -3.581  0.0000E+00  0.0000E+00  0.0000E+00
     -3.490  0.0000E+00  0.0000E+00  0.0000E+00
     -3.399  0.0000E+00  0.0000E+00  0.0000E+00
     -3.308  0.0000E+00  0.0000E+00  0.0000E+00
     -3.217  0.2144E-10  0.5109E-11  0.0000E+00
     -3.126  0.1272E+00  0.3032E-01  0.0000E+00
     -3.035  0.0000E+00  0.0000E+00  0.0000E+00
     -2.944  0.0000E+00  0.0000E+00  0.0000E+00
     -2.854  0.0000E+00  0.0000E+00  0.0000E+00
     -2.763  0.0000E+00  0.0000E+00  0.0000E+00
     -2.672  0.0000E+00  0.0000E+00  0.0000E+00
     -2.581  0.0000E+00  0.0000E+00  0.0000E+00
     -2.490  0.0000E+00  0.0000E+00  0.0000E+00
     -2.399  0.0000E+00  0.0000E+00  0.0000E+00
     -2.308  0.0000E+00  0.0000E+00  0.0000E+00
     -2.217  0.3065E-01  0.2959E-01  0.0000E+00
     -2.126  0.2517E-10  0.1037E-10  0.0000E+00
     -2.035  0.4333E+00  0.1784E+00  0.0000E+00
     -1.944  0.2300E+00  0.8427E-01  0.0000E+00
     -1.853  0.4374E-09  0.3191E-09  0.0000E+00
     -1.763  0.6956E+00  0.3592E+00  0.0000E+00
     -1.672  0.0000E+00  0.0000E+00  0.0000E+00
     -1.581  0.0000E+00  0.0000E+00  0.0000E+00
     -1.490  0.0000E+00  0.0000E+00  0.0000E+00
     -1.399  0.0000E+00  0.0000E+00  0.0000E+00
     -1.308  0.0000E+00  0.0000E+00  0.0000E+00
     -1.217  0.0000E+00  0.0000E+00  0.0000E+00
     -1.126  0.3037E+00  0.2223E+00  0.0000E+00
     -1.035  0.0000E+00  0.0000E+00  0.0000E+00
     -0.944  0.0000E+00  0.0000E+00  0.0000E+00
     -0.853  0.0000E+00  0.0000E+00  0.0000E+00
     -0.762  0.3907E-05  0.1822E-05  0.0000E+00
     -0.672  0.4399E+00  0.2052E+00  0.0000E+00
     -0.581  0.0000E+00  0.0000E+00  0.0000E+00
     -0.490  0.0000E+00  0.0000E+00  0.0000E+00
     -0.399  0.7162E-04  0.7238E-04  0.0000E+00
     -0.308  0.9083E-01  0.9179E-01  0.0000E+00
     -0.217  0.0000E+00  0.0000E+00  0.0000E+00
     -0.126  0.0000E+00  0.0000E+00  0.0000E+00
     -0.035  0.2855E-03  0.1349E-03  0.0000E+00
      0.056  0.1124E+00  0.5310E-01  0.0000E+00
      0.147  0.0000E+00  0.0000E+00  0.0000E+00
      0.238  0.0000E+00  0.0000E+00  0.0000E+00
      0.329  0.0000E+00  0.0000E+00  0.0000E+00
      0.419  0.0000E+00  0.0000E+00  0.0000E+00
      0.510  0.0000E+00  0.0000E+00  0.0000E+00
      0.601  0.2601E-05  0.2225E-05  0.0000E+00
      0.692  0.3304E+00  0.4785E+00  0.0000E+00
      0.783  0.0000E+00  0.0000E+00  0.0000E+00
      0.874  0.0000E+00  0.0000E+00  0.0000E+00
      0.965  0.0000E+00  0.0000E+00  0.0000E+00
      1.056  0.0000E+00  0.0000E+00  0.0000E+00
      1.147  0.4880E-01  0.3991E+00  0.0000E+00
      1.238  0.0000E+00  0.0000E+00  0.0000E+00
      1.329  0.0000E+00  0.0000E+00  0.0000E+00
      1.420  0.6768E-03  0.6623E-03  0.0000E+00
      1.510  0.1546E+00  0.1513E+00  0.0000E+00
      1.601  0.1461E-01  0.4487E+00  0.0000E+00
      1.692  0.2718E-01  0.4084E+00  0.0000E+00
      1.783  0.0000E+00  0.0000E+00  0.0000E+00
      1.874  0.0000E+00  0.0000E+00  0.0000E+00
      1.965  0.0000E+00  0.0000E+00  0.0000E+00
      2.056  0.0000E+00  0.0000E+00  0.0000E+00
      2.147  0.1255E-13  0.6285E-13  0.0000E+00
      2.238  0.8302E-01  0.4158E+00  0.0000E+00
      2.329  0.3259E-17  0.9288E-03  0.0000E+00
      2.420  0.4484E-15  0.1278E+00  0.0000E+00
      2.511  0.9811E-01  0.8568E+00  0.0000E+00
      2.601  0.0000E+00  0.0000E+00  0.0000E+00
      2.692  0.9205E-14  0.4762E+00  0.0000E+00
      2.783  0.0000E+00  0.0000E+00  0.0000E+00
      2.874  0.5869E-10  0.2581E+00  0.0000E+00
      2.965  0.7682E-01  0.3527E+00  0.0000E+00
      3.056  0.1107E-01  0.4879E+00  0.0000E+00
      3.147  0.1052E-18  0.9500E-05  0.0000E+00
      3.238  0.2941E-14  0.2656E+00  0.0000E+00
      3.329  0.5915E-01  0.6914E-01  0.0000E+00
      3.420  0.7895E-01  0.4534E+00  0.0000E+00
      3.511  0.9686E-21  0.6570E-08  0.0000E+00
      3.602  0.4226E-12  0.8941E+00  0.0000E+00
      3.692  0.0000E+00  0.0000E+00  0.0000E+00
      3.783  0.0000E+00  0.0000E+00  0.0000E+00
      3.874  0.0000E+00  0.0000E+00  0.0000E+00
      3.965  0.0000E+00  0.0000E+00  0.0000E+00
      4.056  0.1403E-14  0.7579E-03  0.0000E+00
      4.147  0.1030E-11  0.5562E+00  0.0000E+00
      4.238  0.5999E-13  0.4453E+00  0.0000E+00
      4.329  0.0000E+00  0.0000E+00  0.0000E+00
      4.420  0.1969E-13  0.3681E+00  0.0000E+00
      4.511  0.0000E+00  0.0000E+00  0.0000E+00
      4.602  0.0000E+00  0.0000E+00  0.0000E+00
      4.693  0.0000E+00  0.0000E+00  0.0000E+00
      4.783  0.0000E+00  0.0000E+00  0.0000E+00
      4.874  0.4886E-14  0.2974E-01  0.0000E+00
      4.965  0.1468E-29  0.8237E-16  0.0000E+00
      5.056  0.6611E-14  0.3709E+00  0.0000E+00
      5.147  0.0000E+00  0.0000E+00  0.0000E+00
      5.238  0.0000E+00  0.0000E+00  0.0000E+00
      5.329  0.0000E+00  0.0000E+00  0.0000E+00
      5.420  0.0000E+00  0.0000E+00  0.0000E+00
      5.511  0.1190E-13  0.6814E-01  0.0000E+00
      5.602  0.0000E+00  0.0000E+00  0.0000E+00
      5.693  0.0000E+00  0.0000E+00  0.0000E+00
      5.784  0.0000E+00  0.0000E+00  0.0000E+00
      5.874  0.0000E+00  0.0000E+00  0.0000E+00
      5.965  0.0000E+00  0.0000E+00  0.0000E+00
      6.056  0.0000E+00  0.0000E+00  0.0000E+00
      6.147  0.0000E+00  0.0000E+00  0.0000E+00
      6.238  0.0000E+00  0.0000E+00  0.0000E+00
      6.329  0.0000E+00  0.0000E+00  0.0000E+00
      6.420  0.0000E+00  0.0000E+00  0.0000E+00
      6.511  0.0000E+00  0.0000E+00  0.0000E+00
      6.602  0.0000E+00  0.0000E+00  0.0000E+00
      6.693  0.0000E+00  0.0000E+00  0.0000E+00
      6.784  0.7339E-02  0.4709E-02  0.0000E+00
      6.875  0.3341E-01  0.3562E-01  0.0000E+00
      6.965  0.0000E+00  0.0000E+00  0.0000E+00
      7.056  0.0000E+00  0.0000E+00  0.0000E+00
      7.147  0.3175E-03  0.2581E-03  0.0000E+00
      7.238  0.1318E+00  0.1071E+00  0.0000E+00
      7.329  0.0000E+00  0.0000E+00  0.0000E+00
      7.420  0.0000E+00  0.0000E+00  0.0000E+00
      7.511  0.0000E+00  0.0000E+00  0.0000E+00
      7.602  0.0000E+00  0.0000E+00  0.0000E+00
      7.693  0.2983E-04  0.2392E-04  0.0000E+00
      7.784  0.1515E+00  0.6385E-01  0.0000E+00
      7.875  0.1967E-01  0.6448E-01  0.0000E+00
      7.966  0.1370E-01  0.2389E-02  0.0000E+00
      8.056  0.0000E+00  0.0000E+00  0.0000E+00
      8.147  0.1117E+00  0.2183E+00  0.0000E+00
      8.238  0.1810E+00  0.1519E+00  0.0000E+00
      8.329  0.0000E+00  0.0000E+00  0.0000E+00
      8.420  0.0000E+00  0.0000E+00  0.0000E+00
      8.511  0.0000E+00  0.0000E+00  0.0000E+00
      8.602  0.7735E-01  0.4707E-01  0.0000E+00
      8.693  0.1416E+00  0.1055E+00  0.0000E+00
      8.784  0.1026E-15  0.1711E-04  0.0000E+00
      8.875  0.1187E-10  0.4864E-01  0.0000E+00
      8.966  0.8918E-01  0.1733E+00  0.0000E+00
      9.057  0.1042E-02  0.3286E-02  0.0000E+00
      9.147  0.7836E-01  0.2471E+00  0.0000E+00
      9.238  0.0000E+00  0.0000E+00  0.0000E+00
      9.329  0.7422E-06  0.7099E-06  0.0000E+00
      9.420  0.1222E+00  0.1169E+00  0.0000E+00
      9.511  0.3705E-12  0.2571E+00  0.0000E+00
      9.602  0.2065E-01  0.2064E+00  0.0000E+00
      9.693  0.1350E-12  0.7894E-01  0.0000E+00
      9.784  0.1963E-06  0.5689E-05  0.0000E+00
      9.875  0.1509E+00  0.3392E+00  0.0000E+00
      9.966  0.3178E-01  0.3111E+00  0.0000E+00
     10.057  0.1690E-06  0.5983E-06  0.0000E+00
     10.147  0.4219E-01  0.1494E+00  0.0000E+00
     10.238  0.0000E+00  0.0000E+00  0.0000E+00
     10.329  0.0000E+00  0.0000E+00  0.0000E+00
     10.420  0.1091E+00  0.1851E+00  0.0000E+00
     10.511  0.1628E+00  0.2386E+00  0.0000E+00
     10.602  0.5399E-03  0.1404E+00  0.0000E+00
     10.693  0.2558E+00  0.2932E+00  0.0000E+00
     10.784  0.9669E-09  0.2068E+00  0.0000E+00
     10.875  0.9558E-01  0.2679E+00  0.0000E+00
     10.966  0.7478E-19  0.2827E-07  0.0000E+00
     11.057  0.7071E-12  0.2673E+00  0.0000E+00
     11.148  0.0000E+00  0.0000E+00  0.0000E+00
     11.238  0.0000E+00  0.0000E+00  0.0000E+00
     11.329  0.0000E+00  0.0000E+00  0.0000E+00
     11.420  0.0000E+00  0.0000E+00  0.0000E+00
     11.511  0.1095E-09  0.3475E+00  0.0000E+00
     11.602  0.0000E+00  0.0000E+00  0.0000E+00
     11.693  0.0000E+00  0.0000E+00  0.0000E+00
     11.784  0.0000E+00  0.0000E+00  0.0000E+00
     11.875  0.0000E+00  0.0000E+00  0.0000E+00
     11.966  0.1601E+00  0.9482E-01  0.0000E+00
     12.057  0.5938E-16  0.7040E-16  0.0000E+00
     12.148  0.9724E-01  0.1153E+00  0.0000E+00
     12.239  0.5375E-02  0.9135E-01  0.0000E+00
     12.329  0.0000E+00  0.0000E+00  0.0000E+00
     12.420  0.0000E+00  0.0000E+00  0.0000E+00
     12.511  0.3893E-06  0.1596E-05  0.0000E+00
     12.602  0.4905E-01  0.2011E+00  0.0000E+00
     12.693  0.0000E+00  0.0000E+00  0.0000E+00
     12.784  0.0000E+00  0.0000E+00  0.0000E+00
     12.875  0.1105E-10  0.4786E-10  0.0000E+00
     12.966  0.6041E-01  0.2617E+00  0.0000E+00
     13.057  0.9090E-03  0.8356E-01  0.0000E+00
     13.148  0.8914E-01  0.3027E+00  0.0000E+00
     13.239  0.0000E+00  0.0000E+00  0.0000E+00
     13.330  0.0000E+00  0.0000E+00  0.0000E+00
     13.420  0.0000E+00  0.0000E+00  0.0000E+00
     13.511  0.0000E+00  0.0000E+00  0.0000E+00
     13.602  0.2028E-09  0.5506E-08  0.0000E+00
     13.693  0.8826E-01  0.5278E+00  0.0000E+00
     13.784  0.0000E+00  0.0000E+00  0.0000E+00
     13.875  0.8394E-01  0.4028E+00  0.0000E+00
     13.966  0.0000E+00  0.0000E+00  0.0000E+00
     14.057  0.2433E-07  0.2425E+00  0.0000E+00
     14.148  0.1165E+00  0.3754E+00  0.0000E+00
     14.239  0.0000E+00  0.0000E+00  0.0000E+00
     14.330  0.2432E-04  0.2443E-03  0.0000E+00
     14.421  0.8781E-02  0.8823E-01  0.0000E+00
     14.511  0.0000E+00  0.0000E+00  0.0000E+00
     14.602  0.0000E+00  0.0000E+00  0.0000E+00
     14.693  0.0000E+00  0.0000E+00  0.0000E+00
     14.784  0.0000E+00  0.0000E+00  0.0000E+00
     14.875  0.0000E+00  0.0000E+00  0.0000E+00
     14.966  0.0000E+00  0.0000E+00  0.0000E+00
     15.057  0.0000E+00  0.0000E+00  0.0000E+00
     15.148  0.0000E+00  0.0000E+00  0.0000E+00
     15.239  0.0000E+00  0.0000E+00  0.0000E+00
     15.330  0.0000E+00  0.0000E+00  0.0000E+00
     15.421  0.0000E+00  0.0000E+00  0.0000E+00
     15.512  0.0000E+00  0.0000E+00  0.0000E+00
     15.602  0.0000E+00  0.0000E+00  0.0000E+00
     15.693  0.0000E+00  0.0000E+00  0.0000E+00
     15.784  0.0000E+00  0.0000E+00  0.0000E+00
     15.875  0.0000E+00  0.0000E+00  0.0000E+00
     15.966  0.0000E+00  0.0000E+00  0.0000E+00
     16.057  0.0000E+00  0.0000E+00  0.0000E+00
     16.148  0.0000E+00  0.0000E+00  0.0000E+00
     16.239  0.0000E+00  0.0000E+00  0.0000E+00
     16.330  0.0000E+00  0.0000E+00  0.0000E+00
     16.421  0.0000E+00  0.0000E+00  0.0000E+00
     16.512  0.0000E+00  0.0000E+00  0.0000E+00
     16.603  0.0000E+00  0.0000E+00  0.0000E+00
     16.693  0.0000E+00  0.0000E+00  0.0000E+00
     16.784  0.0000E+00  0.0000E+00  0.0000E+00
     16.875  0.0000E+00  0.0000E+00  0.0000E+00
     16.966  0.1034E-07  0.3580E-02  0.0000E+00
     17.057  0.1493E-05  0.1486E+00  0.0000E+00
     17.148  0.0000E+00  0.0000E+00  0.0000E+00
     17.239  0.0000E+00  0.0000E+00  0.0000E+00
     17.330  0.0000E+00  0.0000E+00  0.0000E+00
     17.421  0.0000E+00  0.0000E+00  0.0000E+00
     17.512  0.0000E+00  0.0000E+00  0.0000E+00
     17.603  0.0000E+00  0.0000E+00  0.0000E+00
     17.694  0.0000E+00  0.0000E+00  0.0000E+00
     17.784  0.0000E+00  0.0000E+00  0.0000E+00
     17.875  0.0000E+00  0.0000E+00  0.0000E+00
     17.966  0.0000E+00  0.0000E+00  0.0000E+00
     18.057  0.0000E+00  0.0000E+00  0.0000E+00
     18.148  0.0000E+00  0.0000E+00  0.0000E+00
     18.239  0.0000E+00  0.0000E+00  0.0000E+00
     18.23906287     -9.03587270  301      5.61304061      1.00000000
     -9.036  0.0000E+00  0.0000E+00  0.0000E+00
     -8.945  0.0000E+00  0.0000E+00  0.0000E+00
     -8.854  0.0000E+00  0.0000E+00  0.0000E+00
     -8.763  0.0000E+00  0.0000E+00  0.0000E+00
     -8.672  0.0000E+00  0.0000E+00  0.0000E+00
     -8.581  0.0000E+00  0.0000E+00  0.0000E+00
     -8.490  0.0000E+00  0.0000E+00  0.0000E+00
     -8.399  0.0000E+00  0.0000E+00  0.0000E+00
     -8.309  0.0000E+00  0.0000E+00  0.0000E+00
     -8.218  0.0000E+00  0.0000E+00  0.0000E+00
     -8.127  0.0000E+00  0.0000E+00  0.0000E+00
     -8.036  0.0000E+00  0.0000E+00  0.0000E+00
     -7.945  0.0000E+00  0.0000E+00  0.0000E+00
     -7.854  0.3942E-17  0.3460E-31  0.0000E+00
     -7.763  0.2367E-01  0.2078E-15  0.0000E+00
     -7.672  0.0000E+00  0.0000E+00  0.0000E+00
     -7.581  0.0000E+00  0.0000E+00  0.0000E+00
     -7.490  0.0000E+00  0.0000E+00  0.0000E+00
     -7.399  0.5457E-01  0.9901E-03  0.0000E+00
     -7.308  0.1932E-12  0.4854E-14  0.0000E+00
     -7.218  0.1402E+00  0.3523E-02  0.0000E+00
     -7.127  0.0000E+00  0.0000E+00  0.0000E+00
     -7.036  0.0000E+00  0.0000E+00  0.0000E+00
     -6.945  0.0000E+00  0.0000E+00  0.0000E+00
     -6.854  0.0000E+00  0.0000E+00  0.0000E+00
     -6.763  0.4160E-03  0.1946E-04  0.0000E+00
     -6.672  0.2780E+00  0.1301E-01  0.0000E+00
     -6.581  0.0000E+00  0.0000E+00  0.0000E+00
     -6.490  0.0000E+00  0.0000E+00  0.0000E+00
     -6.399  0.1086E-10  0.7008E-12  0.0000E+00
     -6.308  0.5529E+00  0.3567E-01  0.0000E+00
     -6.217  0.1865E+00  0.1125E-01  0.0000E+00
     -6.127  0.0000E+00  0.0000E+00  0.0000E+00
     -6.036  0.0000E+00  0.0000E+00  0.0000E+00
     -5.945  0.0000E+00  0.0000E+00  0.0000E+00
     -5.854  0.0000E+00  0.0000E+00  0.0000E+00
     -5.763  0.0000E+00  0.0000E+00  0.0000E+00
     -5.672  0.1123E+00  0.1148E-01  0.0000E+00
     -5.581  0.0000E+00  0.0000E+00  0.0000E+00
     -5.490  0.5334E-07  0.4677E-08  0.0000E+00
     -5.399  0.5614E+00  0.4922E-01  0.0000E+00
     -5.308  0.0000E+00  0.0000E+00  0.0000E+00
     -5.217  0.5485E+00  0.6036E-01  0.0000E+00
     -5.126  0.9848E-01  0.6118E-02  0.0000E+00
     -5.036  0.2222E-01  0.2002E-02  0.0000E+00
     -4.945  0.5519E+00  0.4973E-01  0.0000E+00
     -4.854  0.0000E+00  0.0000E+00  0.0000E+00
     -4.763  0.0000E+00  0.0000E+00  0.0000E+00
     -4.672  0.0000E+00  0.0000E+00  0.0000E+00
     -4.581  0.0000E+00  0.0000E+00  0.0000E+00
     -4.490  0.0000E+00  0.0000E+00  0.0000E+00
     -4.399  0.9667E-03  0.1501E-03  0.0000E+00
     -4.308  0.5360E+00  0.8325E-01  0.0000E+00
     -4.217  0.1569E-16  0.2087E-17  0.0000E+00
     -4.126  0.8505E+00  0.1111E+00  0.0000E+00
     -4.035  0.0000E+00  0.0000E+00  0.0000E+00
     -3.945  0.0000E+00  0.0000E+00  0.0000E+00
     -3.854  0.0000E+00  0.0000E+00  0.0000E+00
     -3.763  0.0000E+00  0.0000E+00  0.0000E+00
     -3.672  0.0000E+00  0.0000E+00  0.0000E+00
     -3.581  0.0000E+00  0.0000E+00  0.0000E+00
     -3.490  0.0000E+00  0.0000E+00  0.0000E+00
     -3.399  0.0000E+00  0.0000E+00  0.0000E+00
     -3.308  0.0000E+00  0.0000E+00  0.0000E+00
     -3.217  0.2143E-10  0.5111E-11  0.0000E+00
     -3.126  0.1272E+00  0.3032E-01  0.0000E+00
     -3.035  0.0000E+00  0.0000E+00  0.0000E+00
     -2.944  0.0000E+00  0.0000E+00  0.0000E+00
     -2.854  0.0000E+00  0.0000E+00  0.0000E+00
     -2.763  0.0000E+00  0.0000E+00  0.0000E+00
     -2.672  0.0000E+00  0.0000E+00  0.0000E+00
     -2.581  0.0000E+00  0.0000E+00  0.0000E+00
     -2.490  0.0000E+00  0.0000E+00  0.0000E+00
     -2.399  0.0000E+00  0.0000E+00  0.0000E+00
     -2.308  0.0000E+00  0.0000E+00  0.0000E+00
     -2.217  0.3065E-01  0.2959E-01  0.0000E+00
     -2.126  0.2517E-10  0.1037E-10  0.0000E+00
     -2.035  0.4333E+00  0.1784E+00  0.0000E+00
     -1.944  0.2300E+00  0.8427E-01  0.0000E+00
     -1.853  0.4374E-09  0.3191E-09  0.0000E+00
     -1.763  0.6956E+00  0.3592E+00  0.0000E+00
     -1.672  0.0000E+00  0.0000E+00  0.0000E+00
     -1.581  0.0000E+00  0.0000E+00  0.0000E+00
     -1.490  0.0000E+00  0.0000E+00  0.0000E+00
     -1.399  0.0000E+00  0.0000E+00  0.0000E+00
     -1.308  0.0000E+00  0.0000E+00  0.0000E+00
     -1.217  0.0000E+00  0.0000E+00  0.0000E+00
     -1.126  0.3037E+00  0.2223E+00  0.0000E+00
     -1.035  0.0000E+00  0.0000E+00  0.0000E+00
     -0.944  0.0000E+00  0.0000E+00  0.0000E+00