    2    2    1    1
  0.2002393E+02  0.3840297E-09  0.3840297E-09  0.3840297E-09  0.5000000E-15
  1.000000000000000E-004
  CAR 
 Name                                    
      8    299      8
 
  0.0000000E+00  0.0000000E+00  0.0000000E+00  0.4901961E-02
    1       -7.796103   1.000000
    2        5.497559   1.000000
    3        5.497559   1.000000
    4        5.497559   1.000000
    5        8.807711   0.000000
    6        8.807711   0.000000
    7        8.807711   0.000000
    8        9.815071   0.000000
 
  0.1666667E+00  0.0000000E+00  0.0000000E+00  0.3921569E-01
    1       -7.395478   1.000000
    2        2.942392   1.000000
    3        5.022692   1.000000
    4        5.022692   1.000000
    5        8.597464   0.000000
    6        9.496284   0.000000
    7        9.496284   0.000000
    8       11.943005   0.000000
 
  0.3333333E+00  0.0000000E+00  0.0000000E+00  0.3921569E-01
    1       -6.266201   1.000000
    2       -0.376463   1.000000
    3        4.405122   1.000000
    4        4.405121   1.000000
    5        7.974930   0.000000
    6        9.812234   0.000000
    7        9.812234   0.000000
    8       14.349276   0.000000
 
  0.5000000E+00  0.0000000E+00  0.0000000E+00  0.1960784E-01
    1       -5.200374   1.000000
    2       -2.221122   1.000000
    3        4.175178   1.000000
    4        4.175178   1.000000
    5        7.737670   0.000000
    6        9.628605   0.000000
    7        9.628605   0.000000
    8       14.104293   0.000000
 
  0.1666667E+00  0.1666667E+00  0.0000000E+00  0.2941176E-01
    1       -7.259036   1.000000
    2        3.323074   1.000000
    3        4.224512   1.000000
    4        4.224512   1.000000
    5        7.857523   0.000000
    6       10.675582   0.000000
    7       10.706935   0.000000
    8       10.706935   0.000000
 
  0.3333333E+00  0.1666667E+00  0.0000000E+00  0.1176471E+00
    1       -6.352579   1.000000
    2        0.631782   1.000000
    3        3.371421   1.000000
    4        3.598363   1.000000
    5        8.120319   0.000000
    6       10.426585   0.000000
    7       10.854281   0.000000
    8       11.495848   0.000000
 
  0.5000000E+00  0.1666667E+00  0.0000000E+00  0.1176471E+00
    1       -5.023062   1.000000
    2       -1.811432   1.000000
    3        2.499202   1.000000
    4        3.550039   1.000000
    5        8.227956   0.000000
    6       10.437924   0.000000
    7       11.002438   0.000000
    8       12.919313   0.000000
 
 -0.3333333E+00  0.1666667E+00  0.0000000E+00  0.1176471E+00
    1       -5.453299   1.000000
    2       -1.136357   1.000000
    3        2.198423   1.000000
    4        4.077292   1.000000
    5        8.689690   0.000000
    6       10.417951   0.000000
    7       10.602413   0.000000
    8       13.844346   0.000000
 
 -0.1666667E+00  0.1666667E+00  0.0000000E+00  0.5882353E-01
    1       -6.741968   1.000000
    2        1.438066   1.000000
    3        2.914910   1.000000
    4        4.883262   1.000000
    5        9.360186   0.000000
    6        9.903655   0.000000
    7       10.088154   0.000000
    8       12.113334   0.000000
 
  0.3333333E+00  0.3333333E+00  0.0000000E+00  0.2941176E-01
    1       -5.678738   1.000000
    2       -0.015326   1.000000
    3        2.843948   1.000000
    4        2.843948   1.000000
    5        6.801012   0.000000
    6        8.158521   0.000000
    7       13.873026   0.000000
    8       13.873037   0.000000
 
  0.5000000E+00  0.3333333E+00  0.0000000E+00  0.1176471E+00
    1       -4.378548   1.000000
    2       -1.768062   1.000000
    3        1.536019   1.000000
    4        2.682560   1.000000
    5        7.167194   0.000000
    6        8.919365   0.000000
    7       14.051490   0.000000
    8       14.092787   0.000000
 
 -0.3333333E+00  0.3333333E+00  0.0000000E+00  0.5882353E-01
    1       -4.158893   1.000000
    2       -1.998314   1.000000
    3        0.673164   1.000000
    4        3.175012   1.000000
    5        7.716344   0.000000
    6       12.177774   0.000000
    7       13.058334   0.000000
    8       13.664870   0.000000
 
  0.5000000E+00  0.5000000E+00  0.0000000E+00  0.1470588E-01
    1       -3.172809   1.000000
    2       -3.172808   1.000000
    3        2.345982   1.000000
    4        2.345982   1.000000
    5        6.789313   0.000000
    6        6.789313   0.000000
    7       16.978618   0.000000
    8       16.983707   0.000000
 
  0.5000000E+00  0.3333333E+00  0.1666667E+00  0.1176471E+00
    1       -5.248831   1.000000
    2       -0.732132   1.000000
    3        1.614171   1.000000
    4        3.012559   1.000000
    5        9.072217   0.000000
    6        9.958950   0.000000
    7       10.621552   0.000000
    8       13.641525   0.000000
 
 -0.3333333E+00  0.3333333E+00  0.1666667E+00  0.1176471E+00
    1       -4.147539   1.000000
    2       -2.080655   1.000000
    3        1.122634   1.000000
    4        2.496681   1.000000
    5        9.571132   0.000000
    6        9.871351   0.000000
    7       12.541847   0.000000
    8       13.073252   0.000000
 
  0.0000000E+00  0.0000000E+00  0.0000000E+00  0.0000000E+00
    1       -7.796103   1.000000
    2        5.497559   1.000000
    3        5.497559   1.000000
    4        5.497559   1.000000
    5        8.807711   0.000000
    6        8.807711   0.000000
    7        8.807711   0.000000
    8        9.815071   0.000000
 
  0.1760560E-02  0.0000000E+00  0.1760560E-02  0.0000000E+00
    1       -7.796044   1.000000
    2        5.497184   1.000000
    3        5.497320   1.000000
    4        5.497320   1.000000
    5        8.807558   0.000000
    6        8.808022   0.000000
    7        8.808022   0.000000
    8        9.815432   0.000000
 
  0.3521130E-02  0.0000000E+00  0.3521130E-02  0.0000000E+00
    1       -7.795865   1.000000
    2        5.496059   1.000000
    3        5.496602   1.000000
    4        5.496602   1.000000
    5        8.807099   0.000000
    6        8.808954   0.000000
    7        8.808954   0.000000
    8        9.816515   0.000000
 
  0.5281690E-02  0.0000000E+00  0.5281690E-02  0.0000000E+00
    1       -7.795565   1.000000
    2        5.494184   1.000000
    3        5.495406   1.000000
    4        5.495406   1.000000
    5        8.806335   0.000000
    6        8.810506   0.000000
    7        8.810506   0.000000
    8        9.818318   0.000000
 
  0.7042250E-02  0.0000000E+00  0.7042250E-02  0.0000000E+00
    1       -7.795145   1.000000
    2        5.491563   1.000000
    3        5.493734   1.000000
    4        5.493734   1.000000
    5        8.805265   0.000000
    6        8.812678   0.000000
    7        8.812678   0.000000
    8        9.820839   0.000000
 
  0.8802820E-02  0.0000000E+00  0.8802820E-02  0.0000000E+00
    1       -7.794604   1.000000
    2        5.488197   1.000000
    3        5.491587   1.000000
    4        5.491587   1.000000
    5        8.803892   0.000000
    6        8.815466   0.000000
    7        8.815466   0.000000
    8        9.824075   0.000000
 
  0.1056338E-01  0.0000000E+00  0.1056338E-01  0.0000000E+00
    1       -7.793943   1.000000
    2        5.484091   1.000000
    3        5.488969   1.000000
    4        5.488969   1.000000
    5        8.802214   0.000000
    6        8.818869   0.000000
    7        8.818869   0.000000
    8        9.828020   0.000000
 
  0.1232394E-01  0.0000000E+00  0.1232394E-01  0.0000000E+00
    1       -7.793162   1.000000
    2        5.479249   1.000000
    3        5.485883   1.000000
    4        5.485883   1.000000
    5        8.800235   0.000000
    6        8.822882   0.000000
    7        8.822882   0.000000
    8        9.832671   0.000000
 
  0.1408451E-01  0.0000000E+00  0.1408451E-01  0.0000000E+00
    1       -7.792260   1.000000
    2        5.473676   1.000000
    3        5.482331   1.000000
    4        5.482331   1.000000
    5        8.797954   0.000000
    6        8.827504   0.000000
    7        8.827504   0.000000
    8        9.838020   0.000000
 
  0.1584507E-01  0.0000000E+00  0.1584507E-01  0.0000000E+00
    1       -7.791238   1.000000
    2        5.467378   1.000000
    3        5.478318   1.000000
    4        5.478318   1.000000
    5        8.795374   0.000000
    6        8.832728   0.000000
    7        8.832728   0.000000
    8        9.844060   0.000000
 
  0.1760563E-01  0.0000000E+00  0.1760563E-01  0.0000000E+00
    1       -7.790096   1.000000
    2        5.460360   1.000000
    3        5.473849   1.000000
    4        5.473848   1.000000
    5        8.792495   0.000000
    6        8.838551   0.000000
    7        8.838551   0.000000
    8        9.850783   0.000000
 
  0.1936620E-01  0.0000000E+00  0.1936620E-01  0.0000000E+00
    1       -7.788833   1.000000
    2        5.452631   1.000000
    3        5.468928   1.000000
    4        5.468928   1.000000
    5        8.789321   0.000000
    6        8.844968   0.000000
    7        8.844968   0.000000
    8        9.858181   0.000000
 
  0.2112676E-01  0.0000000E+00  0.2112676E-01  0.0000000E+00
    1       -7.787450   1.000000
    2        5.444199   1.000000
    3        5.463562   1.000000
    4        5.463562   1.000000
    5        8.785852   0.000000
    6        8.851972   0.000000
    7        8.851972   0.000000
    8        9.866245   0.000000
 
  0.2288732E-01  0.0000000E+00  0.2288732E-01  0.0000000E+00
    1       -7.785945   1.000000
    2        5.435516   1.000000
    3        5.458222   1.000000
    4        5.458222   1.000000
    5        8.782090   0.000000
    6        8.859093   0.000000
    7        8.859093   0.000000
    8        9.874589   0.000000
 
  0.2464789E-01  0.0000000E+00  0.2464789E-01  0.0000000E+00
    1       -7.784321   1.000000
    2        5.425769   1.000000
    3        5.452054   1.000000
    4        5.452053   1.000000
    5        8.778040   0.000000
    6        8.867184   0.000000
    7        8.867184   0.000000
    8        9.883896   0.000000
 
  0.2640845E-01  0.0000000E+00  0.2640845E-01  0.0000000E+00
    1       -7.782576   1.000000
    2        5.415350   1.000000
    3        5.445463   1.000000
    4        5.445463   1.000000
    5        8.773703   0.000000
    6        8.875840   0.000000
    7        8.875840   0.000000
    8        9.893831   0.000000
 
  0.2816902E-01  0.0000000E+00  0.2816902E-01  0.0000000E+00
    1       -7.780713   1.000000
    2        5.404263   1.000000
    3        5.438456   1.000000
    4        5.438456   1.000000
    5        8.769079   0.000000
    6        8.885053   0.000000
    7        8.885053   0.000000
    8        9.904383   0.000000
 
  0.2992958E-01  0.0000000E+00  0.2992958E-01  0.0000000E+00
    1       -7.778728   1.000000
    2        5.392526   1.000000
    3        5.431042   1.000000
    4        5.431042   1.000000
    5        8.764177   0.000000
    6        8.894817   0.000000
    7        8.894817   0.000000
    8        9.915539   0.000000
 
  0.3169014E-01  0.0000000E+00  0.3169014E-01  0.0000000E+00
    1       -7.776622   1.000000
    2        5.380147   1.000000
    3        5.423227   1.000000
    4        5.423227   1.000000
    5        8.758996   0.000000
    6        8.905124   0.000000
    7        8.905124   0.000000
    8        9.927284   0.000000
 
  0.3345070E-01  0.0000000E+00  0.3345070E-01  0.0000000E+00
    1       -7.774396   1.000000
    2        5.367136   1.000000
    3        5.415018   1.000000
    4        5.415018   1.000000
    5        8.753540   0.000000
    6        8.915966   0.000000
    7        8.915966   0.000000
    8        9.939606   0.000000
 
  0.3521127E-01  0.0000000E+00  0.3521127E-01  0.0000000E+00
    1       -7.772054   1.000000
    2        5.353493   1.000000
    3        5.406421   1.000000
    4        5.406421   1.000000
    5        8.747808   0.000000
    6        8.927331   0.000000
    7        8.927331   0.000000
    8        9.952483   0.000000
 
  0.3697183E-01  0.0000000E+00  0.3697183E-01  0.0000000E+00
    1       -7.769587   1.000000
    2        5.339252   1.000000
    3        5.397451   1.000000
    4        5.397451   1.000000
    5        8.741812   0.000000
    6        8.939218   0.000000
    7        8.939218   0.000000
    8        9.965912   0.000000
 
  0.3873239E-01  0.0000000E+00  0.3873239E-01  0.0000000E+00
    1       -7.767001   1.000000
    2        5.324413   1.000000
    3        5.388112   1.000000
    4        5.388112   1.000000
    5        8.735552   0.000000
    6        8.951616   0.000000
    7        8.951616   0.000000
    8        9.979872   0.000000
 
  0.4049296E-01  0.0000000E+00  0.4049296E-01  0.0000000E+00
    1       -7.764294   1.000000
    2        5.308988   1.000000
    3        5.378413   1.000000
    4        5.378413   1.000000
    5        8.729030   0.000000
    6        8.964516   0.000000
    7        8.964516   0.000000
    8        9.994346   0.000000
 
  0.4225352E-01  0.0000000E+00  0.4225352E-01  0.0000000E+00
    1       -7.761466   1.000000
    2        5.292990   1.000000
    3        5.368363   1.000000
    4        5.368363   1.000000
    5        8.722251   0.000000
    6        8.977908   0.000000
    7        8.977908   0.000000
    8       10.009317   0.000000
 
  0.4401409E-01  0.0000000E+00  0.4401409E-01  0.0000000E+00
    1       -7.758519   1.000000
    2        5.276430   1.000000
    3        5.357970   1.000000
    4        5.357969   1.000000
    5        8.715219   0.000000
    6        8.991785   0.000000
    7        8.991785   0.000000
    8       10.024768   0.000000
 
  0.4577465E-01  0.0000000E+00  0.4577465E-01  0.0000000E+00
    1       -7.755451   1.000000
    2        5.259320   1.000000
    3        5.347242   1.000000
    4        5.347242   1.000000
    5        8.707937   0.000000
    6        9.006137   0.000000
    7        9.006137   0.000000
    8       10.040683   0.000000
 
  0.4753521E-01  0.0000000E+00  0.4753521E-01  0.0000000E+00
    1       -7.752263   1.000000
    2        5.241674   1.000000
    3        5.336190   1.000000
    4        5.336190   1.000000
    5        8.700409   0.000000
    6        9.020956   0.000000
    7        9.020956   0.000000
    8       10.057042   0.000000
 
  0.4929578E-01  0.0000000E+00  0.4929578E-01  0.0000000E+00
    1       -7.748956   1.000000
    2        5.223494   1.000000
    3        5.324819   1.000000
    4        5.324819   1.000000
    5        8.692636   0.000000
    6        9.036225   0.000000
    7        9.036225   0.000000
    8       10.073819   0.000000
 
  0.5105634E-01  0.0000000E+00  0.5105634E-01  0.0000000E+00
    1       -7.745528   1.000000
    2        5.204809   1.000000
    3        5.313143   1.000000
    4        5.313142   1.000000
    5        8.684631   0.000000
    6        9.051950   0.000000
    7        9.051950   0.000000
    8       10.091012   0.000000
 
  0.5281691E-01  0.0000000E+00  0.5281691E-01  0.0000000E+00
    1       -7.741979   1.000000
    2        5.185624   1.000000
    3        5.301168   1.000000
    4        5.301168   1.000000
    5        8.676392   0.000000
    6        9.068114   0.000000
    7        9.068114   0.000000
    8       10.108594   0.000000
 
  0.5457747E-01  0.0000000E+00  0.5457747E-01  0.0000000E+00
    1       -7.738311   1.000000
    2        5.165951   1.000000
    3        5.288903   1.000000
    4        5.288903   1.000000
    5        8.667926   0.000000
    6        9.084708   0.000000
    7        9.084708   0.000000
    8       10.126545   0.000000
 
  0.5633803E-01  0.0000000E+00  0.5633803E-01  0.0000000E+00
    1       -7.734522   1.000000
    2        5.145802   1.000000
    3        5.276358   1.000000
    4        5.276358   1.000000
    5        8.659235   0.000000
    6        9.101724   0.000000
    7        9.101724   0.000000
    8       10.144844   0.000000
 
  0.5809860E-01  0.0000000E+00  0.5809860E-01  0.0000000E+00
    1       -7.730613   1.000000
    2        5.125187   1.000000
    3        5.263541   1.000000
    4        5.263541   1.000000
    5        8.650325   0.000000
    6        9.119152   0.000000
    7        9.119152   0.000000
    8       10.163472   0.000000
 
  0.5985916E-01  0.0000000E+00  0.5985916E-01  0.0000000E+00
    1       -7.726585   1.000000
    2        5.104120   1.000000
    3        5.250461   1.000000
    4        5.250461   1.000000
    5        8.641201   0.000000
    6        9.136984   0.000000
    7        9.136984   0.000000
    8       10.182408   0.000000
 
  0.6161972E-01  0.0000000E+00  0.6161972E-01  0.0000000E+00
    1       -7.722436   1.000000
    2        5.082602   1.000000
    3        5.237123   1.000000
    4        5.237123   1.000000
    5        8.631865   0.000000
    6        9.155210   0.000000
    7        9.155210   0.000000
    8       10.201628   0.000000
 
  0.6338029E-01  0.0000000E+00  0.6338029E-01  0.0000000E+00
    1       -7.718167   1.000000
    2        5.060664   1.000000
    3        5.223542   1.000000
    4        5.223542   1.000000
    5        8.622324   0.000000
    6        9.173823   0.000000
    7        9.173823   0.000000
    8       10.221114   0.000000
 
  0.6514085E-01  0.0000000E+00  0.6514085E-01  0.0000000E+00
    1       -7.713775   1.000000
    2        5.038310   1.000000
    3        5.209723   1.000000
    4        5.209723   1.000000
    5        8.612585   0.000000
    6        9.192814   0.000000
    7        9.192814   0.000000
    8       10.240844   0.000000
 
  0.6690141E-01  0.0000000E+00  0.6690141E-01  0.0000000E+00
    1       -7.709267   1.000000
    2        5.015548   1.000000
    3        5.195674   1.000000
    4        5.195674   1.000000
    5        8.602646   0.000000
    6        9.212174   0.000000
    7        9.212174   0.000000
    8       10.260792   0.000000
 
  0.6866197E-01  0.0000000E+00  0.6866197E-01  0.0000000E+00
    1       -7.704638   1.000000
    2        4.992392   1.000000
    3        5.181405   1.000000
    4        5.181405   1.000000
    5        8.592515   0.000000
    6        9.231895   0.000000
    7        9.231895   0.000000
    8       10.280935   0.000000
 
  0.7042254E-01  0.0000000E+00  0.7042254E-01  0.0000000E+00
    1       -7.699889   1.000000
    2        4.968850   1.000000
    3        5.166922   1.000000
    4        5.166922   1.000000
    5        8.582198   0.000000
    6        9.251969   0.000000
    7        9.251969   0.000000
    8       10.301250   0.000000
 
  0.7218310E-01  0.0000000E+00  0.7218310E-01  0.0000000E+00
    1       -7.695020   1.000000
    2        4.944936   1.000000
    3        5.152234   1.000000
    4        5.152234   1.000000
    5        8.571698   0.000000
    6        9.272387   0.000000
    7        9.272387   0.000000
    8       10.321712   0.000000
 
  0.7394367E-01  0.0000000E+00  0.7394367E-01  0.0000000E+00
    1       -7.690032   1.000000
    2        4.920657   1.000000
    3        5.137349   1.000000
    4        5.137349   1.000000
    5        8.561020   0.000000
    6        9.293141   0.000000
    7        9.293141   0.000000
    8       10.342296   0.000000
 
  0.7570423E-01  0.0000000E+00  0.7570423E-01  0.0000000E+00
    1       -7.684924   1.000000
    2        4.896026   1.000000
    3        5.122274   1.000000
    4        5.122274   1.000000
    5        8.550169   0.000000
    6        9.314225   0.000000
    7        9.314225   0.000000
    8       10.362974   0.000000
 
  0.7746479E-01  0.0000000E+00  0.7746479E-01  0.0000000E+00
    1       -7.679696   1.000000
    2        4.871051   1.000000
    3        5.107017   1.000000
    4        5.107017   1.000000
    5        8.539150   0.000000
    6        9.335629   0.000000
    7        9.335629   0.000000
    8       10.383722   0.000000
 
  0.7922535E-01  0.0000000E+00  0.7922535E-01  0.0000000E+00
    1       -7.674348   1.000000
    2        4.845743   1.000000
    3        5.091585   1.000000
    4        5.091585   1.000000
    5        8.527968   0.000000
    6        9.357347   0.000000
    7        9.357347   0.000000
    8       10.404509   0.000000
 
  0.8098592E-01  0.0000000E+00  0.8098592E-01  0.0000000E+00
    1       -7.668880   1.000000
    2        4.820112   1.000000
    3        5.075986   1.000000
    4        5.075986   1.000000
    5        8.516626   0.000000
    6        9.379370   0.000000
    7        9.379371   0.000000
    8       10.425309   0.000000
 
  0.8274648E-01  0.0000000E+00  0.8274648E-01  0.0000000E+00
    1       -7.663295   1.000000
    2        4.794155   1.000000
    3        5.060218   1.000000
    4        5.060218   1.000000
    5        8.505130   0.000000
    6        9.401690   0.000000
    7        9.401690   0.000000
    8       10.446088   0.000000
 
  0.8450705E-01  0.0000000E+00  0.8450705E-01  0.0000000E+00
    1       -7.657588   1.000000
    2        4.767904   1.000000
    3        5.044305   1.000000
    4        5.044305   1.000000
    5        8.493485   0.000000
    6        9.424304   0.000000
    7        9.424304   0.000000
    8       10.466820   0.000000
 
  0.8626761E-01  0.0000000E+00  0.8626761E-01  0.0000000E+00
    1       -7.651763   1.000000
    2        4.741356   1.000000
    3        5.028245   1.000000
    4        5.028245   1.000000
    5        8.481694   0.000000
    6        9.447203   0.000000
    7        9.447203   0.000000
    8       10.487471   0.000000
 
  0.8802817E-01  0.0000000E+00  0.8802817E-01  0.0000000E+00
    1       -7.645819   1.000000
    2        4.714521   1.000000
    3        5.012045   1.000000
    4        5.012045   1.000000
    5        8.469763   0.000000
    6        9.470380   0.000000
    7        9.470380   0.000000
    8       10.508008   0.000000
 
  0.8978874E-01  0.0000000E+00  0.8978874E-01  0.0000000E+00
    1       -7.639756   1.000000
    2        4.687406   1.000000
    3        4.995712   1.000000
    4        4.995712   1.000000
    5        8.457696   0.000000
    6        9.493829   0.000000
    7        9.493829   0.000000
    8       10.528395   0.000000
 
  0.9154930E-01  0.0000000E+00  0.9154930E-01  0.0000000E+00
    1       -7.633573   1.000000
    2        4.660020   1.000000
    3        4.979251   1.000000
    4        4.979251   1.000000
    5        8.445498   0.000000
    6        9.517542   0.000000
    7        9.517542   0.000000
    8       10.548598   0.000000
 
  0.9330986E-01  0.0000000E+00  0.9330986E-01  0.0000000E+00
    1       -7.627270   1.000000
    2        4.632372   1.000000
    3        4.962669   1.000000
    4        4.962669   1.000000
    5        8.433172   0.000000
    6        9.541513   0.000000
    7        9.541514   0.000000
    8       10.568578   0.000000
 
  0.9507043E-01  0.0000000E+00  0.9507043E-01  0.0000000E+00
    1       -7.620849   1.000000
    2        4.604468   1.000000
    3        4.945972   1.000000
    4        4.945972   1.000000
    5        8.420724   0.000000
    6        9.565737   0.000000
    7        9.565738   0.000000
    8       10.588298   0.000000
 
  0.9683099E-01  0.0000000E+00  0.9683099E-01  0.0000000E+00
    1       -7.614307   1.000000
    2        4.576316   1.000000
    3        4.929165   1.000000
    4        4.929165   1.000000
    5        8.408158   0.000000
    6        9.590208   0.000000
    7        9.590208   0.000000
    8       10.607717   0.000000
 
  0.9859155E-01  0.0000000E+00  0.9859155E-01  0.0000000E+00
    1       -7.607647   1.000000
    2        4.547924   1.000000
    3        4.912255   1.000000
    4        4.912255   1.000000
    5        8.395478   0.000000
    6        9.614918   0.000000
    7        9.614918   0.000000
    8       10.626793   0.000000
 
  0.1003521E+00  0.0000000E+00  0.1003521E+00  0.0000000E+00
    1       -7.600867   1.000000
    2        4.519299   1.000000
    3        4.895247   1.000000
    4        4.895247   1.000000
    5        8.382688   0.000000
    6        9.639863   0.000000
    7        9.639863   0.000000
    8       10.645483   0.000000
 
  0.1021127E+00  0.0000000E+00  0.1021127E+00  0.0000000E+00
    1       -7.593968   1.000000
    2        4.490447   1.000000
    3        4.878146   1.000000
    4        4.878146   1.000000
    5        8.369793   0.000000
    6        9.665037   0.000000
    7        9.665037   0.000000
    8       10.663741   0.000000
 
  0.1038733E+00  0.0000000E+00  0.1038733E+00  0.0000000E+00
    1       -7.586949   1.000000
    2        4.461376   1.000000
    3        4.860958   1.000000
    4        4.860958   1.000000
    5        8.356797   0.000000
    6        9.690435   0.000000
    7        9.690435   0.000000
    8       10.681523   0.000000
 
  0.1056338E+00  0.0000000E+00  0.1056338E+00  0.0000000E+00
    1       -7.579812   1.000000
    2        4.432092   1.000000
    3        4.843688   1.000000
    4        4.843688   1.000000
    5        8.343704   0.000000
    6        9.716050   0.000000
    7        9.716050   0.000000
    8       10.698779   0.000000
 
  0.1073944E+00  0.0000000E+00  0.1073944E+00  0.0000000E+00
    1       -7.572555   1.000000
    2        4.402601   1.000000
    3        4.826340   1.000000
    4        4.826340   1.000000
    5        8.330519   0.000000
    6        9.741879   0.000000
    7        9.741879   0.000000
    8       10.715461   0.000000
 
  0.1091549E+00  0.0000000E+00  0.1091549E+00  0.0000000E+00
    1       -7.565179   1.000000
    2        4.372910   1.000000
    3        4.808920   1.000000
    4        4.808920   1.000000
    5        8.317244   0.000000
    6        9.767915   0.000000
    7        9.767916   0.000000
    8       10.731519   0.000000
 
  0.1109155E+00  0.0000000E+00  0.1109155E+00  0.0000000E+00
    1       -7.557684   1.000000
    2        4.343025   1.000000
    3        4.791433   1.000000
    4        4.791433   1.000000
    5        8.303885   0.000000
    6        9.794155   0.000000
    7        9.794155   0.000000
    8       10.746901   0.000000
 
  0.1126761E+00  0.0000000E+00  0.1126761E+00  0.0000000E+00
    1       -7.550069   1.000000
    2        4.312950   1.000000
    3        4.773882   1.000000
    4        4.773882   1.000000
    5        8.290445   0.000000
    6        9.820593   0.000000
    7        9.820593   0.000000
    8       10.761555   0.000000
 
  0.1144366E+00  0.0000000E+00  0.1144366E+00  0.0000000E+00
    1       -7.542336   1.000000
    2        4.282693   1.000000
    3        4.756273   1.000000
    4        4.756273   1.000000
    5        8.276928   0.000000
    6        9.847224   0.000000
    7        9.847224   0.000000
    8       10.775428   0.000000
 
  0.1161972E+00  0.0000000E+00  0.1161972E+00  0.0000000E+00
    1       -7.534484   1.000000
    2        4.252258   1.000000
    3        4.738609   1.000000
    4        4.738609   1.000000
    5        8.263338   0.000000
    6        9.874044   0.000000
    7        9.874044   0.000000
    8       10.788467   0.000000
 
  0.1179578E+00  0.0000000E+00  0.1179578E+00  0.0000000E+00
    1       -7.526513   1.000000
    2        4.221650   1.000000
    3        4.720896   1.000000
    4        4.720896   1.000000
    5        8.249679   0.000000
    6        9.901049   0.000000
    7        9.901049   0.000000
    8       10.800620   0.000000
 
  0.1197183E+00  0.0000000E+00  0.1197183E+00  0.0000000E+00
    1       -7.518423   1.000000
    2        4.190875   1.000000
    3        4.703137   1.000000
    4        4.703137   1.000000
    5        8.235954   0.000000
    6        9.928233   0.000000
    7        9.928233   0.000000
    8       10.811836   0.000000
 
  0.1214789E+00  0.0000000E+00  0.1214789E+00  0.0000000E+00
    1       -7.510215   1.000000
    2        4.159938   1.000000
    3        4.685335   1.000000
    4        4.685335   1.000000
    5        8.222168   0.000000
    6        9.955594   0.000000
    7        9.955594   0.000000
    8       10.822062   0.000000
 
  0.1232394E+00  0.0000000E+00  0.1232394E+00  0.0000000E+00
    1       -7.501887   1.000000
    2        4.128843   1.000000
    3        4.667496   1.000000
    4        4.667496   1.000000
    5        8.208323   0.000000
    6        9.983126   0.000000
    7        9.983126   0.000000
    8       10.831250   0.000000
 
  0.1250000E+00  0.0000000E+00  0.1250000E+00  0.0000000E+00
    1       -7.493436   1.000000
    2        4.097596   1.000000
    3        4.649624   1.000000
    4        4.649624   1.000000
    5        8.194424   0.000000
    6       10.010829   0.000000
    7       10.010829   0.000000
    8       10.839356   0.000000
 
  0.1267606E+00  0.0000000E+00  0.1267606E+00  0.0000000E+00
    1       -7.484871   1.000000
    2        4.066201   1.000000
    3        4.631720   1.000000
    4        4.631720   1.000000
    5        8.180474   0.000000
    6       10.038692   0.000000
    7       10.038692   0.000000
    8       10.846329   0.000000
 
  0.1285211E+00  0.0000000E+00  0.1285211E+00  0.0000000E+00
    1       -7.476188   1.000000
    2        4.034662   1.000000
    3        4.613789   1.000000
    4        4.613789   1.000000
    5        8.166475   0.000000
    6       10.066715   0.000000
    7       10.066715   0.000000
    8       10.852136   0.000000
 
  0.1302817E+00  0.0000000E+00  0.1302817E+00  0.0000000E+00
    1       -7.467386   1.000000
    2        4.002982   1.000000
    3        4.595835   1.000000
    4        4.595834   1.000000
    5        8.152433   0.000000
    6       10.094895   0.000000
    7       10.094895   0.000000
    8       10.856736   0.000000
 
  0.1320423E+00  0.0000000E+00  0.1320423E+00  0.0000000E+00
    1       -7.458466   1.000000
    2        3.971168   1.000000
    3        4.577860   1.000000
    4        4.577860   1.000000
    5        8.138349   0.000000
    6       10.123228   0.000000
    7       10.123228   0.000000
    8       10.860099   0.000000
 