 vasp.5.4.1 24Jun15 (build Nov 25 2015 16:01:35) complex                        
  
 executed on         CrayXC-Intel date 2016.09.07  14:56:20
 running on   96 total cores
 distrk:  each k-point on   24 cores,    4 groups
 distr:  one band on NCORES_PER_BAND=   6 cores,    4 groups


--------------------------------------------------------------------------------------------------------


 INCAR:
 POTCAR:    PAW_PBE Si 05Jan2001                  

 ----------------------------------------------------------------------------- 
|                                                                             |
|           W    W    AA    RRRRR   N    N  II  N    N   GGGG   !!!           |
|           W    W   A  A   R    R  NN   N  II  NN   N  G    G  !!!           |
|           W    W  A    A  R    R  N N  N  II  N N  N  G       !!!           |
|           W WW W  AAAAAA  RRRRR   N  N N  II  N  N N  G  GGG   !            |
|           WW  WW  A    A  R   R   N   NN  II  N   NN  G    G                |
|           W    W  A    A  R    R  N    N  II  N    N   GGGG   !!!           |
|                                                                             |
|      You have enabled k-point parallelism (KPAR>1).                         |
|      This developmental code was originally  written by Paul Kent at ORNL,  |
|      and carefully double checked in Vienna.                                |
|      GW as well as linear response parallelism added by Martijn Marsman     |
|      and Georg Kresse.                                                      |
|      Carefully verify results versus KPAR=1.                                |
|      Report problems to Paul Kent and Vienna.                               |
|                                                                             |
 ----------------------------------------------------------------------------- 


 ----------------------------------------------------------------------------- 
|                                                                             |
|           W    W    AA    RRRRR   N    N  II  N    N   GGGG   !!!           |
|           W    W   A  A   R    R  NN   N  II  NN   N  G    G  !!!           |
|           W    W  A    A  R    R  N N  N  II  N N  N  G       !!!           |
|           W WW W  AAAAAA  RRRRR   N  N N  II  N  N N  G  GGG   !            |
|           WW  WW  A    A  R   R   N   NN  II  N   NN  G    G                |
|           W    W  A    A  R    R  N    N  II  N    N   GGGG   !!!           |
|                                                                             |
|      You have selected ISYM=2 for HF type calculation. This will symmetrize |
|      the charge density but not the exchange potential.                     |
|      I suggest to use ISYM=3 instead. This uses symmetry to obtain          |
|      the orbitals at all k-points in the Brillouine zone, but does not      |
|      apply symmetry to the Hartree potential directly.                      |
|      The resultant charge might have lower symmetry than the crystal,       |
|      but at least, Hartree and exchange are fully compatible.               |
|                                                                             |
 ----------------------------------------------------------------------------- 

 POTCAR:    PAW_PBE Si 05Jan2001                  
   VRHFIN =Si: s2p2                                                             
   LEXCH  = PE                                                                  
   EATOM  =   103.0669 eV,    7.5752 Ry                                         
                                                                                
   TITEL  = PAW_PBE Si 05Jan2001                                                
   LULTRA =        F    use ultrasoft PP ?                                      
   IUNSCR =        1    unscreen: 0-lin 1-nonlin 2-no                           
   RPACOR =    1.500    partial core radius                                     
   POMASS =   28.085; ZVAL   =    4.000    mass and valenz                      
   RCORE  =    1.900    outmost cutoff radius                                   
   RWIGS  =    2.480; RWIGS  =    1.312    wigner-seitz radius (au A)           
   ENMAX  =  245.345; ENMIN  =  184.009 eV                                      
   ICORE  =        2    local potential                                         
   LCOR   =        T    correct aug charges                                     
   LPAW   =        T    paw PP                                                  
   EAUG   =  322.069                                                            
   DEXC   =    0.000                                                            
   RMAX   =    1.950    core radius for proj-oper                               
   RAUG   =    1.300    factor for augmentation sphere                          
   RDEP   =    1.993    radius for radial grids                                 
   RDEPT  =    1.837    core radius for aug-charge                              
                                                                                
   Atomic configuration                                                         
    6 entries                                                                   
     n  l   j            E        occ.                                          
     1  0  0.50     -1785.8828   2.0000                                         
     2  0  0.50      -139.4969   2.0000                                         
     2  1  1.50       -95.5546   6.0000                                         
     3  0  0.50       -10.8127   2.0000                                         
     3  1  0.50        -4.0811   2.0000                                         
     3  2  1.50        -4.0817   0.0000                                         
   Description                                                                  
     l       E           TYP  RCUT    TYP  RCUT                                 
     0    -10.8127223     23  1.900                                             
     0     -7.6451159     23  1.900                                             
     1     -4.0811372     23  1.900                                             
     1      2.4879257     23  1.900                                             
     2     -4.0817478      7  1.900                                             
  local pseudopotential read in
  partial core-charges read in
  partial kinetic energy density read in
  atomic valenz-charges read in
  non local Contribution for L=           0  read in
    real space projection operators read in
  non local Contribution for L=           0  read in
    real space projection operators read in
  non local Contribution for L=           1  read in
    real space projection operators read in
  non local Contribution for L=           1  read in
    real space projection operators read in
    PAW grid and wavefunctions read in
 
   number of l-projection  operators is LMAX  =           4
   number of lm-projection operators is LMMAX =           8
 
  PAW_PBE Si 05Jan2001                  :
 energy of atom  1       EATOM= -103.0669
 kinetic energy error for atom=    0.0006 (will be added to EATOM!!)
 
 
 POSCAR: Si (Madelung Handbook, 295.7K)          
  positions in direct lattice
  velocities in cartesian coordinates
 exchange correlation table for  LEXCH =        8
   RHO(1)=    0.500       N(1)  =     2000
   RHO(2)=  100.500       N(2)  =     4000
 


--------------------------------------------------------------------------------------------------------


 ion  position               nearest neighbor table
   1  0.000  0.000  0.000-   2 2.35   2 2.35   2 2.35   2 2.35
   2  0.250  0.250  0.250-   1 2.35   1 2.35   1 2.35   1 2.35
 
  LATTYP: Found a face centered cubic cell.
 ALAT       =     5.4310000000
  
  Lattice vectors:
  
 A1 = (   2.7155000000,   2.7155000000,   0.0000000000)
 A2 = (   2.7155000000,   0.0000000000,  -2.7155000000)
 A3 = (   0.0000000000,   2.7155000000,  -2.7155000000)


Analysis of symmetry for initial positions (statically):
=====================================================================
 Subroutine PRICEL returns:
 Original cell was already a primitive cell.
 

 Routine SETGRP: Setting up the symmetry group for a 
 face centered cubic supercell.


 Subroutine GETGRP returns: Found 48 space group operations
 (whereof 24 operations were pure point group operations)
 out of a pool of 48 trial point group operations.


The static configuration has the point symmetry T_d .
 The point group associated with its full space group is O_h .


Analysis of symmetry for dynamics (positions and initial velocities):
=====================================================================
 Subroutine PRICEL returns:
 Original cell was already a primitive cell.
 

 Routine SETGRP: Setting up the symmetry group for a 
 face centered cubic supercell.


 Subroutine GETGRP returns: Found 48 space group operations
 (whereof 24 operations were pure point group operations)
 out of a pool of 48 trial point group operations.


The dynamic configuration has the point symmetry T_d .
 The point group associated with its full space group is O_h .


 Subroutine INISYM returns: Found 48 space group operations
 (whereof 24 operations are pure point group operations),
 and found     1 'primitive' translations

 
 
 KPOINTS: Automatically generated mesh: SCF=15, 0.
  k-points in reciprocal lattice
Space group operators:
 irot       det(A)        alpha          n_x          n_y          n_z        tau_x        tau_y        tau_z
    1     1.000000     0.000001     1.000000     0.000000     0.000000     0.000000     0.000000     0.000000
    2     1.000000   120.000000    -0.577350    -0.577350     0.577350     0.000000     0.000000     0.000000
    3     1.000000   120.000000     0.577350     0.577350    -0.577350     0.000000     0.000000     0.000000
    4    -1.000000    90.000000    -1.000000     0.000000     0.000000     0.000000     0.000000     0.000000
    5    -1.000000   180.000000     0.707107     0.707107     0.000000     0.000000     0.000000     0.000000
    6    -1.000000    90.000000     0.000000     1.000000     0.000000     0.000000     0.000000     0.000000
    7     1.000000   180.000000     1.000000     0.000000     0.000000     0.000000     0.000000     0.000000
    8     1.000000   120.000000     0.577350     0.577350     0.577350     0.000000     0.000000     0.000000
    9     1.000000   120.000000    -0.577350     0.577350     0.577350     0.000000     0.000000     0.000000
   10    -1.000000    90.000000     1.000000     0.000000     0.000000     0.000000     0.000000     0.000000
   11    -1.000000    90.000000     0.000000     0.000000     1.000000     0.000000     0.000000     0.000000
   12    -1.000000   180.000000     0.707107     0.000000    -0.707107     0.000000     0.000000     0.000000
   13     1.000000   120.000000     0.577350    -0.577350    -0.577350     0.000000     0.000000     0.000000
   14     1.000000   120.000000     0.577350    -0.577350     0.577350     0.000000     0.000000     0.000000
   15     1.000000   180.000000     0.000000     0.000000     1.000000     0.000000     0.000000     0.000000
   16    -1.000000    90.000000     0.000000    -1.000000     0.000000     0.000000     0.000000     0.000000
   17    -1.000000   180.000000     0.000000    -0.707107     0.707107     0.000000     0.000000     0.000000
   18    -1.000000    90.000000     0.000000     0.000000    -1.000000     0.000000     0.000000     0.000000
   19     1.000000   120.000000    -0.577350    -0.577350    -0.577350     0.000000     0.000000     0.000000
   20     1.000000   180.000000     0.000000     1.000000     0.000000     0.000000     0.000000     0.000000
   21     1.000000   120.000000    -0.577350     0.577350    -0.577350     0.000000     0.000000     0.000000
   22    -1.000000   180.000000     0.707107    -0.707107     0.000000     0.000000     0.000000     0.000000
   23    -1.000000   180.000000     0.000000     0.707107     0.707107     0.000000     0.000000     0.000000
   24    -1.000000   180.000000     0.707107     0.000000     0.707107     0.000000     0.000000     0.000000
   25    -1.000000     0.000001     1.000000     0.000000     0.000000     0.250000     0.250000     0.250000
   26    -1.000000   120.000000    -0.577350    -0.577350     0.577350     0.250000     0.250000     0.250000
   27    -1.000000   120.000000     0.577350     0.577350    -0.577350     0.250000     0.250000     0.250000
   28     1.000000    90.000000    -1.000000     0.000000     0.000000     0.250000     0.250000     0.250000
   29     1.000000   180.000000     0.707107     0.707107     0.000000     0.250000     0.250000     0.250000
   30     1.000000    90.000000     0.000000     1.000000     0.000000     0.250000     0.250000     0.250000
   31    -1.000000   180.000000     1.000000     0.000000     0.000000     0.250000     0.250000     0.250000
   32    -1.000000   120.000000     0.577350     0.577350     0.577350     0.250000     0.250000     0.250000
   33    -1.000000   120.000000    -0.577350     0.577350     0.577350     0.250000     0.250000     0.250000
   34     1.000000    90.000000     1.000000     0.000000     0.000000     0.250000     0.250000     0.250000
   35     1.000000    90.000000     0.000000     0.000000     1.000000     0.250000     0.250000     0.250000
   36     1.000000   180.000000     0.707107     0.000000    -0.707107     0.250000     0.250000     0.250000
   37    -1.000000   120.000000     0.577350    -0.577350    -0.577350     0.250000     0.250000     0.250000
   38    -1.000000   120.000000     0.577350    -0.577350     0.577350     0.250000     0.250000     0.250000
   39    -1.000000   180.000000     0.000000     0.000000     1.000000     0.250000     0.250000     0.250000
   40     1.000000    90.000000     0.000000    -1.000000     0.000000     0.250000     0.250000     0.250000
   41     1.000000   180.000000     0.000000    -0.707107     0.707107     0.250000     0.250000     0.250000
   42     1.000000    90.000000     0.000000     0.000000    -1.000000     0.250000     0.250000     0.250000
   43    -1.000000   120.000000    -0.577350    -0.577350    -0.577350     0.250000     0.250000     0.250000
   44    -1.000000   180.000000     0.000000     1.000000     0.000000     0.250000     0.250000     0.250000
   45    -1.000000   120.000000    -0.577350     0.577350    -0.577350     0.250000     0.250000     0.250000
   46     1.000000   180.000000     0.707107    -0.707107     0.000000     0.250000     0.250000     0.250000
   47     1.000000   180.000000     0.000000     0.707107     0.707107     0.250000     0.250000     0.250000
   48     1.000000   180.000000     0.707107     0.000000     0.707107     0.250000     0.250000     0.250000

 ----------------------------------------------------------------------------- 
|                                                                             |
|           W    W    AA    RRRRR   N    N  II  N    N   GGGG   !!!           |
|           W    W   A  A   R    R  NN   N  II  NN   N  G    G  !!!           |
|           W    W  A    A  R    R  N N  N  II  N N  N  G       !!!           |
|           W WW W  AAAAAA  RRRRR   N  N N  II  N  N N  G  GGG   !            |
|           WW  WW  A    A  R   R   N   NN  II  N   NN  G    G                |
|           W    W  A    A  R    R  N    N  II  N    N   GGGG   !!!           |
|                                                                             |
|      Your generating k-point grid is not commensurate to the symmetry       |
|      of the lattice.  This can cause   slow convergence with respect        |
|      to k-points for HF type calculations                                   |
|      suggested SOLUTIONS:                                                   |
|       ) if not already the case, use automatic k-point generation           |
|       ) shift your grid to Gamma (G) (e.g. required for hex or fcc lattice) |
|                                                                             |
 ----------------------------------------------------------------------------- 

 
 Subroutine IBZKPT_HF returns following result:
 ==============================================
 
 Found    488 k-points in 1st BZ
 the following    488 k-points will be used (e.g. in the exchange kernel)
 Following reciprocal coordinates:   # in IRBZ
  0.000000  0.000000  0.000000    0.00490196   1 t-inv F
  0.166667  0.000000  0.000000    0.00490196   2 t-inv F
  0.333333  0.000000  0.000000    0.00490196   3 t-inv F
  0.500000  0.000000  0.000000    0.00490196   4 t-inv F
  0.166667  0.166667  0.000000    0.00490196   5 t-inv F
  0.333333  0.166667  0.000000    0.00490196   6 t-inv F
  0.500000  0.166667  0.000000    0.00490196   7 t-inv F
 -0.333333  0.166667  0.000000    0.00490196   8 t-inv F
 -0.166667  0.166667  0.000000    0.00490196   9 t-inv F
  0.333333  0.333333  0.000000    0.00490196  10 t-inv F
  0.500000  0.333333  0.000000    0.00490196  11 t-inv F
 -0.333333  0.333333  0.000000    0.00490196  12 t-inv F
  0.500000  0.500000  0.000000    0.00490196  13 t-inv F
  0.500000  0.333333  0.166667    0.00490196  14 t-inv F
 -0.333333  0.333333  0.166667    0.00490196  15 t-inv F
  0.000000  0.000000  0.000000    0.00000000  16 t-inv F
  0.001761  0.000000  0.001761    0.00000000  17 t-inv F
  0.003521  0.000000  0.003521    0.00000000  18 t-inv F
  0.005282  0.000000  0.005282    0.00000000  19 t-inv F
  0.007042  0.000000  0.007042    0.00000000  20 t-inv F
  0.008803  0.000000  0.008803    0.00000000  21 t-inv F
  0.010563  0.000000  0.010563    0.00000000  22 t-inv F
  0.012324  0.000000  0.012324    0.00000000  23 t-inv F
  0.014085  0.000000  0.014085    0.00000000  24 t-inv F
  0.015845  0.000000  0.015845    0.00000000  25 t-inv F
  0.017606  0.000000  0.017606    0.00000000  26 t-inv F
  0.019366  0.000000  0.019366    0.00000000  27 t-inv F
  0.021127  0.000000  0.021127    0.00000000  28 t-inv F
  0.022887  0.000000  0.022887    0.00000000  29 t-inv F
  0.024648  0.000000  0.024648    0.00000000  30 t-inv F
  0.026408  0.000000  0.026408    0.00000000  31 t-inv F
  0.028169  0.000000  0.028169    0.00000000  32 t-inv F
  0.029930  0.000000  0.029930    0.00000000  33 t-inv F
  0.031690  0.000000  0.031690    0.00000000  34 t-inv F
  0.033451  0.000000  0.033451    0.00000000  35 t-inv F
  0.035211  0.000000  0.035211    0.00000000  36 t-inv F
  0.036972  0.000000  0.036972    0.00000000  37 t-inv F
  0.038732  0.000000  0.038732    0.00000000  38 t-inv F
  0.040493  0.000000  0.040493    0.00000000  39 t-inv F
  0.042254  0.000000  0.042254    0.00000000  40 t-inv F
  0.044014  0.000000  0.044014    0.00000000  41 t-inv F
  0.045775  0.000000  0.045775    0.00000000  42 t-inv F
  0.047535  0.000000  0.047535    0.00000000  43 t-inv F
  0.049296  0.000000  0.049296    0.00000000  44 t-inv F
  0.051056  0.000000  0.051056    0.00000000  45 t-inv F
  0.052817  0.000000  0.052817    0.00000000  46 t-inv F
  0.054577  0.000000  0.054577    0.00000000  47 t-inv F
  0.056338  0.000000  0.056338    0.00000000  48 t-inv F
  0.058099  0.000000  0.058099    0.00000000  49 t-inv F
  0.059859  0.000000  0.059859    0.00000000  50 t-inv F
  0.061620  0.000000  0.061620    0.00000000  51 t-inv F
  0.063380  0.000000  0.063380    0.00000000  52 t-inv F
  0.065141  0.000000  0.065141    0.00000000  53 t-inv F
  0.066901  0.000000  0.066901    0.00000000  54 t-inv F
  0.068662  0.000000  0.068662    0.00000000  55 t-inv F
  0.070423  0.000000  0.070423    0.00000000  56 t-inv F
  0.072183  0.000000  0.072183    0.00000000  57 t-inv F
  0.073944  0.000000  0.073944    0.00000000  58 t-inv F
  0.075704  0.000000  0.075704    0.00000000  59 t-inv F
  0.077465  0.000000  0.077465    0.00000000  60 t-inv F
  0.079225  0.000000  0.079225    0.00000000  61 t-inv F
  0.080986  0.000000  0.080986    0.00000000  62 t-inv F
  0.082746  0.000000  0.082746    0.00000000  63 t-inv F
  0.084507  0.000000  0.084507    0.00000000  64 t-inv F
  0.086268  0.000000  0.086268    0.00000000  65 t-inv F
  0.088028  0.000000  0.088028    0.00000000  66 t-inv F
  0.089789  0.000000  0.089789    0.00000000  67 t-inv F
  0.091549  0.000000  0.091549    0.00000000  68 t-inv F
  0.093310  0.000000  0.093310    0.00000000  69 t-inv F
  0.095070  0.000000  0.095070    0.00000000  70 t-inv F
  0.096831  0.000000  0.096831    0.00000000  71 t-inv F
  0.098592  0.000000  0.098592    0.00000000  72 t-inv F
  0.100352  0.000000  0.100352    0.00000000  73 t-inv F
  0.102113  0.000000  0.102113    0.00000000  74 t-inv F
  0.103873  0.000000  0.103873    0.00000000  75 t-inv F
  0.105634  0.000000  0.105634    0.00000000  76 t-inv F
  0.107394  0.000000  0.107394    0.00000000  77 t-inv F
  0.109155  0.000000  0.109155    0.00000000  78 t-inv F
  0.110916  0.000000  0.110916    0.00000000  79 t-inv F
  0.112676  0.000000  0.112676    0.00000000  80 t-inv F
  0.114437  0.000000  0.114437    0.00000000  81 t-inv F
  0.116197  0.000000  0.116197    0.00000000  82 t-inv F
  0.117958  0.000000  0.117958    0.00000000  83 t-inv F
  0.119718  0.000000  0.119718    0.00000000  84 t-inv F
  0.121479  0.000000  0.121479    0.00000000  85 t-inv F
  0.123239  0.000000  0.123239    0.00000000  86 t-inv F
  0.125000  0.000000  0.125000    0.00000000  87 t-inv F
  0.126761  0.000000  0.126761    0.00000000  88 t-inv F
  0.128521  0.000000  0.128521    0.00000000  89 t-inv F
  0.130282  0.000000  0.130282    0.00000000  90 t-inv F
  0.132042  0.000000  0.132042    0.00000000  91 t-inv F
  0.133803  0.000000  0.133803    0.00000000  92 t-inv F
  0.135563  0.000000  0.135563    0.00000000  93 t-inv F
  0.137324  0.000000  0.137324    0.00000000  94 t-inv F
  0.139085  0.000000  0.139085    0.00000000  95 t-inv F
  0.140845  0.000000  0.140845    0.00000000  96 t-inv F
  0.142606  0.000000  0.142606    0.00000000  97 t-inv F
  0.144366  0.000000  0.144366    0.00000000  98 t-inv F
  0.146127  0.000000  0.146127    0.00000000  99 t-inv F
  0.147887  0.000000  0.147887    0.00000000 100 t-inv F
  0.149648  0.000000  0.149648    0.00000000 101 t-inv F
  0.151408  0.000000  0.151408    0.00000000 102 t-inv F
  0.153169  0.000000  0.153169    0.00000000 103 t-inv F
  0.154930  0.000000  0.154930    0.00000000 104 t-inv F
  0.156690  0.000000  0.156690    0.00000000 105 t-inv F
  0.158451  0.000000  0.158451    0.00000000 106 t-inv F
  0.160211  0.000000  0.160211    0.00000000 107 t-inv F
  0.161972  0.000000  0.161972    0.00000000 108 t-inv F
  0.163732  0.000000  0.163732    0.00000000 109 t-inv F
  0.165493  0.000000  0.165493    0.00000000 110 t-inv F
  0.167254  0.000000  0.167254    0.00000000 111 t-inv F
  0.169014  0.000000  0.169014    0.00000000 112 t-inv F
  0.170775  0.000000  0.170775    0.00000000 113 t-inv F
  0.172535  0.000000  0.172535    0.00000000 114 t-inv F
  0.174296  0.000000  0.174296    0.00000000 115 t-inv F
  0.176056  0.000000  0.176056    0.00000000 116 t-inv F
  0.177817  0.000000  0.177817    0.00000000 117 t-inv F
  0.179577  0.000000  0.179577    0.00000000 118 t-inv F
  0.181338  0.000000  0.181338    0.00000000 119 t-inv F
  0.183099  0.000000  0.183099    0.00000000 120 t-inv F
  0.184859  0.000000  0.184859    0.00000000 121 t-inv F
  0.186620  0.000000  0.186620    0.00000000 122 t-inv F
  0.188380  0.000000  0.188380    0.00000000 123 t-inv F
  0.190141  0.000000  0.190141    0.00000000 124 t-inv F
  0.191901  0.000000  0.191901    0.00000000 125 t-inv F
  0.193662  0.000000  0.193662    0.00000000 126 t-inv F
  0.195423  0.000000  0.195423    0.00000000 127 t-inv F
  0.197183  0.000000  0.197183    0.00000000 128 t-inv F
  0.198944  0.000000  0.198944    0.00000000 129 t-inv F
  0.200704  0.000000  0.200704    0.00000000 130 t-inv F
  0.202465  0.000000  0.202465    0.00000000 131 t-inv F
  0.204225  0.000000  0.204225    0.00000000 132 t-inv F
  0.205986  0.000000  0.205986    0.00000000 133 t-inv F
  0.207746  0.000000  0.207746    0.00000000 134 t-inv F
  0.209507  0.000000  0.209507    0.00000000 135 t-inv F
  0.211268  0.000000  0.211268    0.00000000 136 t-inv F
  0.213028  0.000000  0.213028    0.00000000 137 t-inv F
  0.214789  0.000000  0.214789    0.00000000 138 t-inv F
  0.216549  0.000000  0.216549    0.00000000 139 t-inv F
  0.218310  0.000000  0.218310    0.00000000 140 t-inv F
  0.220070  0.000000  0.220070    0.00000000 141 t-inv F
  0.221831  0.000000  0.221831    0.00000000 142 t-inv F
  0.223592  0.000000  0.223592    0.00000000 143 t-inv F
  0.225352  0.000000  0.225352    0.00000000 144 t-inv F
  0.227113  0.000000  0.227113    0.00000000 145 t-inv F
  0.228873  0.000000  0.228873    0.00000000 146 t-inv F
  0.230634  0.000000  0.230634    0.00000000 147 t-inv F
  0.232394  0.000000  0.232394    0.00000000 148 t-inv F
  0.234155  0.000000  0.234155    0.00000000 149 t-inv F
  0.235916  0.000000  0.235916    0.00000000 150 t-inv F
  0.237676  0.000000  0.237676    0.00000000 151 t-inv F
  0.239437  0.000000  0.239437    0.00000000 152 t-inv F
  0.241197  0.000000  0.241197    0.00000000 153 t-inv F
  0.242958  0.000000  0.242958    0.00000000 154 t-inv F
  0.244718  0.000000  0.244718    0.00000000 155 t-inv F
  0.246479  0.000000  0.246479    0.00000000 156 t-inv F
  0.248239  0.000000  0.248239    0.00000000 157 t-inv F
  0.250000  0.000000  0.250000    0.00000000 158 t-inv F
  0.251761  0.000000  0.251761    0.00000000 159 t-inv F
  0.253521  0.000000  0.253521    0.00000000 160 t-inv F
  0.255282  0.000000  0.255282    0.00000000 161 t-inv F
  0.257042  0.000000  0.257042    0.00000000 162 t-inv F
  0.258803  0.000000  0.258803    0.00000000 163 t-inv F
  0.260563  0.000000  0.260563    0.00000000 164 t-inv F
  0.262324  0.000000  0.262324    0.00000000 165 t-inv F
  0.264085  0.000000  0.264085    0.00000000 166 t-inv F
  0.265845  0.000000  0.265845    0.00000000 167 t-inv F
  0.267606  0.000000  0.267606    0.00000000 168 t-inv F
  0.269366  0.000000  0.269366    0.00000000 169 t-inv F
  0.271127  0.000000  0.271127    0.00000000 170 t-inv F
  0.272887  0.000000  0.272887    0.00000000 171 t-inv F
  0.274648  0.000000  0.274648    0.00000000 172 t-inv F
  0.276408  0.000000  0.276408    0.00000000 173 t-inv F
  0.278169  0.000000  0.278169    0.00000000 174 t-inv F
  0.279930  0.000000  0.279930    0.00000000 175 t-inv F
  0.281690  0.000000  0.281690    0.00000000 176 t-inv F
  0.283451  0.000000  0.283451    0.00000000 177 t-inv F
  0.285211  0.000000  0.285211    0.00000000 178 t-inv F
  0.286972  0.000000  0.286972    0.00000000 179 t-inv F
  0.288732  0.000000  0.288732    0.00000000 180 t-inv F
  0.290493  0.000000  0.290493    0.00000000 181 t-inv F
  0.292254  0.000000  0.292254    0.00000000 182 t-inv F
  0.294014  0.000000  0.294014    0.00000000 183 t-inv F
  0.295775  0.000000  0.295775    0.00000000 184 t-inv F
  0.297535  0.000000  0.297535    0.00000000 185 t-inv F
  0.299296  0.000000  0.299296    0.00000000 186 t-inv F
  0.301056  0.000000  0.301056    0.00000000 187 t-inv F
  0.302817  0.000000  0.302817    0.00000000 188 t-inv F
  0.304577  0.000000  0.304577    0.00000000 189 t-inv F
  0.306338  0.000000  0.306338    0.00000000 190 t-inv F
  0.308099  0.000000  0.308099    0.00000000 191 t-inv F
  0.309859  0.000000  0.309859    0.00000000 192 t-inv F
  0.311620  0.000000  0.311620    0.00000000 193 t-inv F
  0.313380  0.000000  0.313380    0.00000000 194 t-inv F
  0.315141  0.000000  0.315141    0.00000000 195 t-inv F
  0.316901  0.000000  0.316901    0.00000000 196 t-inv F
  0.318662  0.000000  0.318662    0.00000000 197 t-inv F
  0.320423  0.000000  0.320423    0.00000000 198 t-inv F
  0.322183  0.000000  0.322183    0.00000000 199 t-inv F
  0.323944  0.000000  0.323944    0.00000000 200 t-inv F
  0.325704  0.000000  0.325704    0.00000000 201 t-inv F
  0.327465  0.000000  0.327465    0.00000000 202 t-inv F
  0.329225  0.000000  0.329225    0.00000000 203 t-inv F
  0.330986  0.000000  0.330986    0.00000000 204 t-inv F
  0.332746  0.000000  0.332746    0.00000000 205 t-inv F
  0.334507  0.000000  0.334507    0.00000000 206 t-inv F
  0.336268  0.000000  0.336268    0.00000000 207 t-inv F
  0.338028  0.000000  0.338028    0.00000000 208 t-inv F
  0.339789  0.000000  0.339789    0.00000000 209 t-inv F
  0.341549  0.000000  0.341549    0.00000000 210 t-inv F
  0.343310  0.000000  0.343310    0.00000000 211 t-inv F
  0.345070  0.000000  0.345070    0.00000000 212 t-inv F
  0.346831  0.000000  0.346831    0.00000000 213 t-inv F
  0.348592  0.000000  0.348592    0.00000000 214 t-inv F
  0.350352  0.000000  0.350352    0.00000000 215 t-inv F
  0.352113  0.000000  0.352113    0.00000000 216 t-inv F
  0.353873  0.000000  0.353873    0.00000000 217 t-inv F
  0.355634  0.000000  0.355634    0.00000000 218 t-inv F
  0.357394  0.000000  0.357394    0.00000000 219 t-inv F
  0.359155  0.000000  0.359155    0.00000000 220 t-inv F
  0.360916  0.000000  0.360916    0.00000000 221 t-inv F
  0.362676  0.000000  0.362676    0.00000000 222 t-inv F
  0.364437  0.000000  0.364437    0.00000000 223 t-inv F
  0.366197  0.000000  0.366197    0.00000000 224 t-inv F
  0.367958  0.000000  0.367958    0.00000000 225 t-inv F
  0.369718  0.000000  0.369718    0.00000000 226 t-inv F
  0.371479  0.000000  0.371479    0.00000000 227 t-inv F
  0.373239  0.000000  0.373239    0.00000000 228 t-inv F
  0.375000  0.000000  0.375000    0.00000000 229 t-inv F
  0.376761  0.000000  0.376761    0.00000000 230 t-inv F
  0.378521  0.000000  0.378521    0.00000000 231 t-inv F
  0.380282  0.000000  0.380282    0.00000000 232 t-inv F
  0.382042  0.000000  0.382042    0.00000000 233 t-inv F
  0.383803  0.000000  0.383803    0.00000000 234 t-inv F
  0.385563  0.000000  0.385563    0.00000000 235 t-inv F
  0.387324  0.000000  0.387324    0.00000000 236 t-inv F
  0.389085  0.000000  0.389085    0.00000000 237 t-inv F
  0.390845  0.000000  0.390845    0.00000000 238 t-inv F
  0.392606  0.000000  0.392606    0.00000000 239 t-inv F
  0.394366  0.000000  0.394366    0.00000000 240 t-inv F
  0.396127  0.000000  0.396127    0.00000000 241 t-inv F
  0.397887  0.000000  0.397887    0.00000000 242 t-inv F
  0.399648  0.000000  0.399648    0.00000000 243 t-inv F
  0.401408  0.000000  0.401408    0.00000000 244 t-inv F
  0.403169  0.000000  0.403169    0.00000000 245 t-inv F
  0.404930  0.000000  0.404930    0.00000000 246 t-inv F
  0.406690  0.000000  0.406690    0.00000000 247 t-inv F
  0.408451  0.000000  0.408451    0.00000000 248 t-inv F
  0.410211  0.000000  0.410211    0.00000000 249 t-inv F
  0.411972  0.000000  0.411972    0.00000000 250 t-inv F
  0.413732  0.000000  0.413732    0.00000000 251 t-inv F
  0.415493  0.000000  0.415493    0.00000000 252 t-inv F
  0.417254  0.000000  0.417254    0.00000000 253 t-inv F
  0.419014  0.000000  0.419014    0.00000000 254 t-inv F
  0.420775  0.000000  0.420775    0.00000000 255 t-inv F
  0.422535  0.000000  0.422535    0.00000000 256 t-inv F
  0.424296  0.000000  0.424296    0.00000000 257 t-inv F
  0.426056  0.000000  0.426056    0.00000000 258 t-inv F
  0.427817  0.000000  0.427817    0.00000000 259 t-inv F
  0.429577  0.000000  0.429577    0.00000000 260 t-inv F
  0.431338  0.000000  0.431338    0.00000000 261 t-inv F
  0.433099  0.000000  0.433099    0.00000000 262 t-inv F
  0.434859  0.000000  0.434859    0.00000000 263 t-inv F
  0.436620  0.000000  0.436620    0.00000000 264 t-inv F
  0.438380  0.000000  0.438380    0.00000000 265 t-inv F
  0.440141  0.000000  0.440141    0.00000000 266 t-inv F
  0.441901  0.000000  0.441901    0.00000000 267 t-inv F
  0.443662  0.000000  0.443662    0.00000000 268 t-inv F
  0.445423  0.000000  0.445423    0.00000000 269 t-inv F
  0.447183  0.000000  0.447183    0.00000000 270 t-inv F
  0.448944  0.000000  0.448944    0.00000000 271 t-inv F
  0.450704  0.000000  0.450704    0.00000000 272 t-inv F
  0.452465  0.000000  0.452465    0.00000000 273 t-inv F
  0.454225  0.000000  0.454225    0.00000000 274 t-inv F
  0.455986  0.000000  0.455986    0.00000000 275 t-inv F
  0.457746  0.000000  0.457746    0.00000000 276 t-inv F
  0.459507  0.000000  0.459507    0.00000000 277 t-inv F
  0.461268  0.000000  0.461268    0.00000000 278 t-inv F
  0.463028  0.000000  0.463028    0.00000000 279 t-inv F
  0.464789  0.000000  0.464789    0.00000000 280 t-inv F
  0.466549  0.000000  0.466549    0.00000000 281 t-inv F
  0.468310  0.000000  0.468310    0.00000000 282 t-inv F
  0.470070  0.000000  0.470070    0.00000000 283 t-inv F
  0.471831  0.000000  0.471831    0.00000000 284 t-inv F
  0.473592  0.000000  0.473592    0.00000000 285 t-inv F
  0.475352  0.000000  0.475352    0.00000000 286 t-inv F
  0.477113  0.000000  0.477113    0.00000000 287 t-inv F
  0.478873  0.000000  0.478873    0.00000000 288 t-inv F
  0.480634  0.000000  0.480634    0.00000000 289 t-inv F
  0.482394  0.000000  0.482394    0.00000000 290 t-inv F
  0.484155  0.000000  0.484155    0.00000000 291 t-inv F
  0.485915  0.000000  0.485915    0.00000000 292 t-inv F
  0.487676  0.000000  0.487676    0.00000000 293 t-inv F
  0.489437  0.000000  0.489437    0.00000000 294 t-inv F
  0.491197  0.000000  0.491197    0.00000000 295 t-inv F
  0.492958  0.000000  0.492958    0.00000000 296 t-inv F
  0.494718  0.000000  0.494718    0.00000000 297 t-inv F
  0.496479  0.000000  0.496479    0.00000000 298 t-inv F
  0.498239  0.000000  0.498239    0.00000000 299 t-inv F
  0.000000  0.166667  0.000000    0.00490196   2 t-inv F
  0.000000  0.000000  0.166667    0.00490196   2 t-inv F
 -0.166667 -0.166667 -0.166667    0.00490196   2 t-inv F
 -0.166667  0.000000  0.000000    0.00490196   2 t-inv F
  0.000000 -0.166667  0.000000    0.00490196   2 t-inv F
  0.000000  0.000000 -0.166667    0.00490196   2 t-inv F
  0.166667  0.166667  0.166667    0.00490196   2 t-inv F
  0.000000  0.333333  0.000000    0.00490196   3 t-inv F
  0.000000  0.000000  0.333333    0.00490196   3 t-inv F
 -0.333333 -0.333333 -0.333333    0.00490196   3 t-inv F
 -0.333333  0.000000  0.000000    0.00490196   3 t-inv F
  0.000000 -0.333333  0.000000    0.00490196   3 t-inv F
  0.000000  0.000000 -0.333333    0.00490196   3 t-inv F
  0.333333  0.333333  0.333333    0.00490196   3 t-inv F
  0.000000  0.500000  0.000000    0.00490196   4 t-inv F
  0.000000  0.000000  0.500000    0.00490196   4 t-inv F
 -0.500000 -0.500000 -0.500000    0.00490196   4 t-inv F
  0.000000  0.166667  0.166667    0.00490196   5 t-inv F
  0.166667  0.000000  0.166667    0.00490196   5 t-inv F
 -0.166667 -0.166667  0.000000    0.00490196   5 t-inv F
 -0.166667  0.000000 -0.166667    0.00490196   5 t-inv F
  0.000000 -0.166667 -0.166667    0.00490196   5 t-inv F
  0.000000  0.333333  0.166667    0.00490196   6 t-inv F
  0.166667  0.000000  0.333333    0.00490196   6 t-inv F
 -0.166667 -0.166667  0.166667    0.00490196   6 t-inv F
 -0.333333 -0.166667 -0.333333    0.00490196   6 t-inv F
  0.166667  0.333333  0.000000    0.00490196   6 t-inv F
  0.166667 -0.166667 -0.166667    0.00490196   6 t-inv F
 -0.333333 -0.333333 -0.166667    0.00490196   6 t-inv F
  0.000000  0.166667  0.333333    0.00490196   6 t-inv F
 -0.166667  0.166667 -0.166667    0.00490196   6 t-inv F
 -0.166667 -0.333333 -0.333333    0.00490196   6 t-inv F
  0.333333  0.000000  0.166667    0.00490196   6 t-inv F
 -0.333333 -0.166667  0.000000    0.00490196   6 t-inv F
  0.000000 -0.333333 -0.166667    0.00490196   6 t-inv F
 -0.166667  0.000000 -0.333333    0.00490196   6 t-inv F
  0.166667  0.166667 -0.166667    0.00490196   6 t-inv F
  0.333333  0.166667  0.333333    0.00490196   6 t-inv F
 -0.166667 -0.333333  0.000000    0.00490196   6 t-inv F
 -0.166667  0.166667  0.166667    0.00490196   6 t-inv F
  0.333333  0.333333  0.166667    0.00490196   6 t-inv F
  0.000000 -0.166667 -0.333333    0.00490196   6 t-inv F
  0.166667 -0.166667  0.166667    0.00490196   6 t-inv F
  0.166667  0.333333  0.333333    0.00490196   6 t-inv F
 -0.333333  0.000000 -0.166667    0.00490196   6 t-inv F
  0.000000  0.500000  0.166667    0.00490196   7 t-inv F
  0.166667  0.000000  0.500000    0.00490196   7 t-inv F
 -0.166667 -0.166667  0.333333    0.00490196   7 t-inv F
 -0.500000 -0.333333 -0.500000    0.00490196   7 t-inv F
  0.166667  0.500000  0.000000    0.00490196   7 t-inv F
  0.333333 -0.166667 -0.166667    0.00490196   7 t-inv F
 -0.500000 -0.500000 -0.333333    0.00490196   7 t-inv F
  0.000000  0.166667  0.500000    0.00490196   7 t-inv F
 -0.166667  0.333333 -0.166667    0.00490196   7 t-inv F
 -0.333333 -0.500000 -0.500000    0.00490196   7 t-inv F
  0.500000  0.000000  0.166667    0.00490196   7 t-inv F
 -0.500000 -0.166667  0.000000    0.00490196   7 t-inv F
  0.000000 -0.500000 -0.166667    0.00490196   7 t-inv F
 -0.166667  0.000000 -0.500000    0.00490196   7 t-inv F
  0.166667  0.166667 -0.333333    0.00490196   7 t-inv F
  0.500000  0.333333  0.500000    0.00490196   7 t-inv F
 -0.166667 -0.500000  0.000000    0.00490196   7 t-inv F
 -0.333333  0.166667  0.166667    0.00490196   7 t-inv F
  0.500000  0.500000  0.333333    0.00490196   7 t-inv F
  0.000000 -0.166667 -0.500000    0.00490196   7 t-inv F
  0.166667 -0.333333  0.166667    0.00490196   7 t-inv F
  0.333333  0.500000  0.500000    0.00490196   7 t-inv F
 -0.500000  0.000000 -0.166667    0.00490196   7 t-inv F
  0.000000 -0.333333  0.166667    0.00490196   8 t-inv F
  0.166667  0.000000 -0.333333    0.00490196   8 t-inv F
 -0.166667 -0.166667 -0.500000    0.00490196   8 t-inv F
  0.333333  0.500000  0.333333    0.00490196   8 t-inv F
  0.166667 -0.333333  0.000000    0.00490196   8 t-inv F
 -0.500000 -0.166667 -0.166667    0.00490196   8 t-inv F
  0.333333  0.333333  0.500000    0.00490196   8 t-inv F
  0.000000  0.166667 -0.333333    0.00490196   8 t-inv F
 -0.166667 -0.500000 -0.166667    0.00490196   8 t-inv F
  0.500000  0.333333  0.333333    0.00490196   8 t-inv F
 -0.333333  0.000000  0.166667    0.00490196   8 t-inv F
  0.333333 -0.166667  0.000000    0.00490196   8 t-inv F
  0.000000  0.333333 -0.166667    0.00490196   8 t-inv F
 -0.166667  0.000000  0.333333    0.00490196   8 t-inv F
  0.166667  0.166667  0.500000    0.00490196   8 t-inv F
 -0.333333 -0.500000 -0.333333    0.00490196   8 t-inv F
 -0.166667  0.333333  0.000000    0.00490196   8 t-inv F
  0.500000  0.166667  0.166667    0.00490196   8 t-inv F
 -0.333333 -0.333333 -0.500000    0.00490196   8 t-inv F
  0.000000 -0.166667  0.333333    0.00490196   8 t-inv F
  0.166667  0.500000  0.166667    0.00490196   8 t-inv F
 -0.500000 -0.333333 -0.333333    0.00490196   8 t-inv F
  0.333333  0.000000 -0.166667    0.00490196   8 t-inv F
  0.000000 -0.166667  0.166667    0.00490196   9 t-inv F
  0.166667  0.000000 -0.166667    0.00490196   9 t-inv F
 -0.166667 -0.166667 -0.333333    0.00490196   9 t-inv F
  0.166667  0.333333  0.166667    0.00490196   9 t-inv F
  0.166667 -0.166667  0.000000    0.00490196   9 t-inv F
 -0.333333 -0.166667 -0.166667    0.00490196   9 t-inv F
  0.166667  0.166667  0.333333    0.00490196   9 t-inv F
  0.000000  0.166667 -0.166667    0.00490196   9 t-inv F
 -0.166667 -0.333333 -0.166667    0.00490196   9 t-inv F
  0.333333  0.166667  0.166667    0.00490196   9 t-inv F
 -0.166667  0.000000  0.166667    0.00490196   9 t-inv F
  0.000000  0.333333  0.333333    0.00490196  10 t-inv F
  0.333333  0.000000  0.333333    0.00490196  10 t-inv F
 -0.333333 -0.333333  0.000000    0.00490196  10 t-inv F
 -0.333333  0.000000 -0.333333    0.00490196  10 t-inv F
  0.000000 -0.333333 -0.333333    0.00490196  10 t-inv F
  0.000000  0.500000  0.333333    0.00490196  11 t-inv F
  0.333333  0.000000  0.500000    0.00490196  11 t-inv F
 -0.333333 -0.333333  0.166667    0.00490196  11 t-inv F
 -0.500000 -0.166667 -0.500000    0.00490196  11 t-inv F
  0.333333  0.500000  0.000000    0.00490196  11 t-inv F
  0.166667 -0.333333 -0.333333    0.00490196  11 t-inv F
 -0.500000 -0.500000 -0.166667    0.00490196  11 t-inv F
  0.000000  0.333333  0.500000    0.00490196  11 t-inv F
 -0.333333  0.166667 -0.333333    0.00490196  11 t-inv F
 -0.166667 -0.500000 -0.500000    0.00490196  11 t-inv F
  0.500000  0.000000  0.333333    0.00490196  11 t-inv F
 -0.500000 -0.333333  0.000000    0.00490196  11 t-inv F
  0.000000 -0.500000 -0.333333    0.00490196  11 t-inv F
 -0.333333  0.000000 -0.500000    0.00490196  11 t-inv F
  0.333333  0.333333 -0.166667    0.00490196  11 t-inv F
  0.500000  0.166667  0.500000    0.00490196  11 t-inv F
 -0.333333 -0.500000  0.000000    0.00490196  11 t-inv F
 -0.166667  0.333333  0.333333    0.00490196  11 t-inv F
  0.500000  0.500000  0.166667    0.00490196  11 t-inv F
  0.000000 -0.333333 -0.500000    0.00490196  11 t-inv F
  0.333333 -0.166667  0.333333    0.00490196  11 t-inv F
  0.166667  0.500000  0.500000    0.00490196  11 t-inv F
 -0.500000  0.000000 -0.333333    0.00490196  11 t-inv F
  0.000000 -0.333333  0.333333    0.00490196  12 t-inv F
  0.333333  0.000000 -0.333333    0.00490196  12 t-inv F
 -0.333333 -0.333333 -0.666667    0.00490196  12 t-inv F
  0.333333  0.666667  0.333333    0.00490196  12 t-inv F
  0.333333 -0.333333  0.000000    0.00490196  12 t-inv F
 -0.666667 -0.333333 -0.333333    0.00490196  12 t-inv F
  0.333333  0.333333  0.666667    0.00490196  12 t-inv F
  0.000000  0.333333 -0.333333    0.00490196  12 t-inv F
 -0.333333 -0.666667 -0.333333    0.00490196  12 t-inv F
  0.666667  0.333333  0.333333    0.00490196  12 t-inv F
 -0.333333  0.000000  0.333333    0.00490196  12 t-inv F
  0.000000  0.500000  0.500000    0.00490196  13 t-inv F
  0.500000  0.000000  0.500000    0.00490196  13 t-inv F
  0.166667  0.500000  0.333333    0.00490196  14 t-inv F
  0.333333  0.166667  0.500000    0.00490196  14 t-inv F
 -0.333333 -0.166667  0.166667    0.00490196  14 t-inv F
 -0.500000 -0.166667 -0.333333    0.00490196  14 t-inv F
 -0.166667  0.333333  0.166667    0.00490196  14 t-inv F
  0.166667  0.333333 -0.166667    0.00490196  14 t-inv F
  0.166667 -0.166667 -0.333333    0.00490196  14 t-inv F
 -0.333333 -0.166667 -0.500000    0.00490196  14 t-inv F
 -0.333333 -0.500000 -0.166667    0.00490196  14 t-inv F
  0.166667 -0.166667  0.333333    0.00490196  14 t-inv F
  0.166667 -0.333333 -0.166667    0.00490196  14 t-inv F
 -0.166667  0.166667  0.333333    0.00490196  14 t-inv F
 -0.333333  0.166667 -0.166667    0.00490196  14 t-inv F
 -0.500000 -0.333333 -0.166667    0.00490196  14 t-inv F
 -0.166667 -0.333333 -0.500000    0.00490196  14 t-inv F
  0.333333  0.166667 -0.166667    0.00490196  14 t-inv F
 -0.166667  0.166667 -0.333333    0.00490196  14 t-inv F
  0.333333 -0.166667  0.166667    0.00490196  14 t-inv F
 -0.166667 -0.333333  0.166667    0.00490196  14 t-inv F
 -0.166667 -0.500000 -0.333333    0.00490196  14 t-inv F
  0.500000  0.166667  0.333333    0.00490196  14 t-inv F
  0.333333  0.500000  0.166667    0.00490196  14 t-inv F
  0.166667  0.333333  0.500000    0.00490196  14 t-inv F
  0.166667 -0.333333  0.333333    0.00490196  15 t-inv F
  0.333333  0.166667 -0.333333    0.00490196  15 t-inv F
 -0.333333 -0.166667 -0.666667    0.00490196  15 t-inv F
  0.333333  0.666667  0.500000    0.00490196  15 t-inv F
 -0.166667 -0.500000  0.166667    0.00490196  15 t-inv F
  0.166667 -0.500000 -0.166667    0.00490196  15 t-inv F
 -0.666667 -0.166667 -0.333333    0.00490196  15 t-inv F
  0.500000  0.666667  0.333333    0.00490196  15 t-inv F
  0.500000  0.333333  0.666667    0.00490196  15 t-inv F
  0.166667 -0.166667 -0.500000    0.00490196  15 t-inv F
 -0.666667 -0.333333 -0.166667    0.00490196  15 t-inv F
 -0.166667  0.166667 -0.500000    0.00490196  15 t-inv F
 -0.333333 -0.666667 -0.166667    0.00490196  15 t-inv F
  0.333333  0.500000  0.666667    0.00490196  15 t-inv F
  0.666667  0.500000  0.333333    0.00490196  15 t-inv F
 -0.500000  0.166667 -0.166667    0.00490196  15 t-inv F
 -0.166667 -0.666667 -0.333333    0.00490196  15 t-inv F
 -0.500000 -0.166667  0.166667    0.00490196  15 t-inv F
 -0.166667 -0.333333 -0.666667    0.00490196  15 t-inv F
  0.666667  0.333333  0.500000    0.00490196  15 t-inv F
 -0.333333  0.166667  0.333333    0.00490196  15 t-inv F
  0.333333 -0.333333  0.166667    0.00490196  15 t-inv F
  0.166667  0.333333 -0.333333    0.00490196  15 t-inv F


--------------------------------------------------------------------------------------------------------




 Dimension of arrays:
   k-points           NKPTS =    299   k-points in BZ     NKDIM =    488   number of bands    NBANDS=      8
   number of dos      NEDOS =    301   number of ions     NIONS =      2
   non local maximal  LDIM  =      4   non local SUM 2l+1 LMDIM =      8
   total plane-waves  NPLWV =  21952
   max r-space proj   IRMAX =      1   max aug-charges    IRDMAX=  18525
   dimension x,y,z NGX =    28 NGY =   28 NGZ =   28
   dimension x,y,z NGXF=    56 NGYF=   56 NGZF=   56
   support grid    NGXF=    56 NGYF=   56 NGZF=   56
   ions per type =               2
 NGX,Y,Z   is equivalent  to a cutoff of  12.12, 12.12, 12.12 a.u.
 NGXF,Y,Z  is equivalent  to a cutoff of  24.24, 24.24, 24.24 a.u.


 I would recommend the setting:
   dimension x,y,z NGX =    28 NGY =   28 NGZ =   28
 SYSTEM =  Name                                    
 POSCAR =  Si (Madelung Handbook, 295.7K)          

 Startparameter for this run:
   NWRITE =      2    write-flag & timer
   PREC   = accura    normal or accurate (medium, high low for compatibility)
   ISTART =      0    job   : 0-new  1-cont  2-samecut
   ICHARG =      2    charge: 1-file 2-atom 10-const
   ISPIN  =      1    spin polarized calculation?
   LNONCOLLINEAR =      F non collinear calculations
   LSORBIT =      F    spin-orbit coupling
   INIWAV =      1    electr: 0-lowe 1-rand  2-diag
   LASPH  =      F    aspherical Exc in radial PAW
   METAGGA=      F    non-selfconsistent MetaGGA calc.

 Electronic Relaxation 1
   ENCUT  =  500.0 eV  36.75 Ry    6.06 a.u.   7.00  7.00  7.00*2*pi/ulx,y,z
   ENINI  =  500.0     initial cutoff
   ENAUG  =  322.1 eV  augmentation charge cutoff
   NELM   =     60;   NELMIN=  2; NELMDL=  0     # of ELM steps 
   EDIFF  = 0.1E-05   stopping-criterion for ELM
   LREAL  =      F    real-space projection
   NLSPLINE    = F    spline interpolate recip. space projectors
   LCOMPAT=      F    compatible to vasp.4.4
   GGA_COMPAT  = T    GGA compatible to vasp.4.4-vasp.4.6
   LMAXPAW     = -100 max onsite density
   LMAXMIX     =    2 max onsite mixed and CHGCAR
   VOSKOWN=      0    Vosko Wilk Nusair interpolation
   ROPT   =    0.00000
 Ionic relaxation
   EDIFFG = -.5E-02   stopping-criterion for IOM
   NSW    =      1    number of steps for IOM
   NBLOCK =      1;   KBLOCK =      1    inner block; outer block 
   IBRION =      2    ionic relax: 0-MD 1-quasi-New 2-CG
   NFREE  =      1    steps in history (QN), initial steepest desc. (CG)
   ISIF   =      3    stress and relaxation
   IWAVPR =     11    prediction:  0-non 1-charg 2-wave 3-comb
   ISYM   =      2    0-nonsym 1-usesym 2-fastsym
   LCORR  =      T    Harris-Foulkes like correction to forces

   POTIM  = 0.5000    time-step for ionic-motion
   TEIN   =    0.0    initial temperature
   TEBEG  =    0.0;   TEEND  =   0.0 temperature during run
   SMASS  =  -3.00    Nose mass-parameter (am)
   estimated Nose-frequenzy (Omega)   =  0.10E-29 period in steps =****** mass=  -0.337E-27a.u.
   SCALEE = 1.0000    scale energy and forces
   NPACO  =    256;   APACO  = 16.0  distance and # of slots for P.C.
   PSTRESS=    0.0 pullay stress

  Mass of Ions in am
   POMASS =  28.09
  Ionic Valenz
   ZVAL   =   4.00
  Atomic Wigner-Seitz radii
   RWIGS  =  -1.00
  virtual crystal weights 
   VCA    =   1.00
   NELECT =       8.0000    total number of electrons
   NUPDOWN=      -1.0000    fix difference up-down

 DOS related values:
   EMIN   =  10.00;   EMAX   =-10.00  energy-range for DOS
   EFERMI =   0.00
   ISMEAR =     0;   SIGMA  =   0.01  broadening in eV -4-tet -1-fermi 0-gaus

 Electronic relaxation 2 (details)
   IALGO  =     58    algorithm
   LDIAG  =      T    sub-space diagonalisation (order eigenvalues)
   LSUBROT=      F    optimize rotation matrix (better conditioning)
   TURBO    =      0    0=normal 1=particle mesh
   IRESTART =      0    0=no restart 2=restart with 2 vectors
   NREBOOT  =      0    no. of reboots
   NMIN     =      0    reboot dimension
   EREF     =   0.00    reference energy to select bands
   IMIX   =      4    mixing-type and parameters
     AMIX     =   0.40;   BMIX     =  1.00
     AMIX_MAG =   1.60;   BMIX_MAG =  1.00
     AMIN     =   0.01
     WC   =   100.;   INIMIX=   1;  MIXPRE=   1;  MAXMIX= -45

 Intra band minimization:
   WEIMIN = 0.0010     energy-eigenvalue tresh-hold
   EBREAK =  0.31E-07  absolut break condition
   DEPER  =   0.30     relativ break condition  

   TIME   =   0.40     timestep for ELM

  volume/ion in A,a.u.               =      20.02       135.13
  Fermi-wavevector in a.u.,A,eV,Ry     =   0.956999  1.808467 12.460868  0.915848
  Thomas-Fermi vector in A             =   2.085978
 
 Write flags
   LWAVE  =      T    write WAVECAR
   LCHARG =      T    write CHGCAR
   LVTOT  =      F    write LOCPOT, total local potential
   LVHAR  =      F    write LOCPOT, Hartree potential only
   LELF   =      F    write electronic localiz. function (ELF)
   LORBIT =     10    0 simple, 1 ext, 2 COOP (PROOUT)


 Dipole corrections
   LMONO  =      F    monopole corrections only (constant potential shift)
   LDIPOL =      F    correct potential (dipole corrections)
   IDIPOL =      0    1-x, 2-y, 3-z, 4-all directions 
   EPSILON=  1.0000000 bulk dielectric constant

 Core level calculations are selected ICORELEVEL =  1
 Exchange correlation treatment:
   GGA     =    PE    GGA type
   LEXCH   =     8    internal setting for exchange type
   VOSKOWN=      0    Vosko Wilk Nusair interpolation
   EXXOEP  =     0    0=HF, 1=EXX-LHF (local Hartree Fock) 2=EXX OEP
   LHFCALC =     T    Hartree Fock is set to
   LSYMGRAD=     F    symmetrize gradient (conserves proper symmetry)
   PRECFOCK=fast      Normal, Fast or Accurate (Low or Medium for compatibility)
   LRHFCALC=     F    long range Hartree Fock
   LRSCOR  =     F    long range correlation only (use DFT for short range part)
   LTHOMAS =     F    Thomas Fermi screening in HF
   LMODELHF=     F    short range full HF, long range fraction AEXX
   ENCUT4O =  -1.0   cutoff for four orbital integrals eV
   LMAXFOCK=     4    L truncation for augmentation on plane wave grid
   LMAXFOCKAE=  -1    L truncation for all-electron charge restoration on plane wave grid
   NMAXFOCKAE=   1    number of basis functions for all-electron charge restoration
   LFOCKAEDFT=     F  apply the AE augmentation even for DFT
   NKREDX  =     1    reduce k-point grid by
   NKREDY  =     1    reduce k-point grid by
   NKREDZ  =     1    reduce k-point grid by
   SHIFTRED=     F    shift reduced grid of Gamma
   HFKIDENT=     F    idential grid for each k-point
   ODDONLY =     F    use only odd q-grid points
   EVENONLY=     F    use only even q-grid points
   HFALPHA =   -1.0000 decay constant for conv. correction
   MCALPHA =    0.0000 extent of test-charge in conv. correction in multipole expansion
   AEXX    =    0.2500 exact exchange contribution
   HFSCREEN=    0.2070 screening length (either q_TF or 0.3 A-1)
   HFSCREENC=   0.2070 screening length for correlation (either q_TF or 0.3 A-1)
   HFRCUT  =    0.0000 spherical cutoff for potential kernel
   ALDAX   =    0.7500 LDA exchange part
   AGGAX   =    0.7500 GGA exchange part
   ALDAC   =    1.0000 LDA correlation
   AGGAC   =    1.0000 GGA correlation
   NBANDSGWLOW=     1    first orbital included in HF term
   ENCUTFOCK=  -1.0 apply spherical cutoff to Coloumb kernel
 Linear response parameters
   LEPSILON=     F    determine dielectric tensor
   LRPA    =     F    only Hartree local field effects (RPA)
   LNABLA  =     F    use nabla operator in PAW spheres
   LVEL    =     F    velocity operator in full k-point grid
   LINTERFAST=   F  fast interpolation
   KINTER  =     0    interpolate to denser k-point grid
   CSHIFT  =0.1000    complex shift for real part using Kramers Kronig
   OMEGAMAX=  -1.0    maximum frequency
   DEG_THRESHOLD= 0.2000000E-02 threshold for treating states as degnerate
   RTIME   =    0.100 relaxation time in fs

 Orbital magnetization related:
   ORBITALMAG=     F  switch on orbital magnetization
   LCHIMAG   =     F  perturbation theory with respect to B field
   DQ        =  0.001000  dq finite difference perturbation B field



--------------------------------------------------------------------------------------------------------


 conjugate gradient relaxation of ions
 charge density and potential will be updated during run
 non-spin polarized calculation
 Conjugate gradient for all bands (Freysoldt, et al. PRB 79, 241103 (2009))
 preconditioned conjugated gradient                                        
 perform sub-space diagonalisation
    before iterative eigenvector-optimisation
 modified Broyden-mixing scheme, WC =      100.0
 initial mixing is a Kerker type mixing with AMIX =  0.4000 and BMIX =      1.0000
 Hartree-type preconditioning will be used
 using additional bands            4
 reciprocal scheme for non local part
 use partial core corrections
 no Harris-corrections to forces 
 use gradient corrections 
 use of overlap-Matrix (Vanderbilt PP)
 Gauss-broadening in eV      SIGMA  =   0.01


--------------------------------------------------------------------------------------------------------


  energy-cutoff  :      500.00
  volume of cell :       40.05
      direct lattice vectors                 reciprocal lattice vectors
     2.715500000  2.715500000  0.000000000     0.184128153  0.184128153  0.184128153
     2.715500000  0.000000000 -2.715500000     0.184128153 -0.184128153 -0.184128153
     0.000000000  2.715500000 -2.715500000    -0.184128153  0.184128153 -0.184128153

  length of vectors
     3.840296929  3.840296929  3.840296929     0.318919316  0.318919316  0.318919316


 
 k-points in units of 2pi/SCALE and weight: Automatically generated mesh: SCF=15, 0.
   0.00000000  0.00000000  0.00000000       0.005
   0.16666667  0.16666667  0.16666667       0.039
   0.33333333  0.33333333  0.33333333       0.039
   0.50000000  0.50000000  0.50000000       0.020
   0.33333333  0.00000000  0.00000000       0.029
   0.50000000  0.16666667  0.16666667       0.118
   0.66666667  0.33333333  0.33333333       0.118
  -0.16666667 -0.50000000 -0.50000000       0.118
   0.00000000 -0.33333333 -0.33333333       0.059
   0.66666667  0.00000000  0.00000000       0.029
   0.83333333  0.16666667  0.16666667       0.118
   0.00000000 -0.66666667 -0.66666667       0.059
   1.00000000  0.00000000  0.00000000       0.015
   0.66666667  0.33333333  0.00000000       0.118
  -0.16666667 -0.50000000 -0.83333333       0.118
   0.00000000  0.00000000  0.00000000       0.000
   0.00000000  0.00352112  0.00000000       0.000
   0.00000000  0.00704226  0.00000000       0.000
   0.00000000  0.01056338  0.00000000       0.000
   0.00000000  0.01408450  0.00000000       0.000
   0.00000000  0.01760564  0.00000000       0.000
   0.00000000  0.02112676  0.00000000       0.000
   0.00000000  0.02464788  0.00000000       0.000
   0.00000000  0.02816902  0.00000000       0.000
   0.00000000  0.03169014  0.00000000       0.000
   0.00000000  0.03521126  0.00000000       0.000
   0.00000000  0.03873240  0.00000000       0.000
   0.00000000  0.04225352  0.00000000       0.000
   0.00000000  0.04577464  0.00000000       0.000
   0.00000000  0.04929578  0.00000000       0.000
   0.00000000  0.05281690  0.00000000       0.000
   0.00000000  0.05633804  0.00000000       0.000
   0.00000000  0.05985916  0.00000000       0.000
   0.00000000  0.06338028  0.00000000       0.000
   0.00000000  0.06690140  0.00000000       0.000
   0.00000000  0.07042254  0.00000000       0.000
   0.00000000  0.07394366  0.00000000       0.000
   0.00000000  0.07746478  0.00000000       0.000
   0.00000000  0.08098592  0.00000000       0.000
   0.00000000  0.08450704  0.00000000       0.000
   0.00000000  0.08802818  0.00000000       0.000
   0.00000000  0.09154930  0.00000000       0.000
   0.00000000  0.09507042  0.00000000       0.000
   0.00000000  0.09859156  0.00000000       0.000
   0.00000000  0.10211268  0.00000000       0.000
   0.00000000  0.10563382  0.00000000       0.000
   0.00000000  0.10915494  0.00000000       0.000
   0.00000000  0.11267606  0.00000000       0.000
   0.00000000  0.11619720  0.00000000       0.000
   0.00000000  0.11971832  0.00000000       0.000
   0.00000000  0.12323944  0.00000000       0.000
   0.00000000  0.12676058  0.00000000       0.000
   0.00000000  0.13028170  0.00000000       0.000
   0.00000000  0.13380282  0.00000000       0.000
   0.00000000  0.13732394  0.00000000       0.000
   0.00000000  0.14084508  0.00000000       0.000
   0.00000000  0.14436620  0.00000000       0.000
   0.00000000  0.14788734  0.00000000       0.000
   0.00000000  0.15140846  0.00000000       0.000
   0.00000000  0.15492958  0.00000000       0.000
   0.00000000  0.15845070  0.00000000       0.000
   0.00000000  0.16197184  0.00000000       0.000
   0.00000000  0.16549296  0.00000000       0.000
   0.00000000  0.16901410  0.00000000       0.000
   0.00000000  0.17253522  0.00000000       0.000
   0.00000000  0.17605634  0.00000000       0.000
   0.00000000  0.17957748  0.00000000       0.000
   0.00000000  0.18309860  0.00000000       0.000
   0.00000000  0.18661972  0.00000000       0.000
   0.00000000  0.19014086  0.00000000       0.000
   0.00000000  0.19366198  0.00000000       0.000
   0.00000000  0.19718310  0.00000000       0.000
   0.00000000  0.20070422  0.00000000       0.000
   0.00000000  0.20422536  0.00000000       0.000
   0.00000000  0.20774650  0.00000000       0.000
   0.00000000  0.21126762  0.00000000       0.000
   0.00000000  0.21478874  0.00000000       0.000
   0.00000000  0.21830986  0.00000000       0.000
   0.00000000  0.22183100  0.00000000       0.000
   0.00000000  0.22535212  0.00000000       0.000
   0.00000000  0.22887324  0.00000000       0.000
   0.00000000  0.23239438  0.00000000       0.000
   0.00000000  0.23591552  0.00000000       0.000
   0.00000000  0.23943662  0.00000000       0.000
   0.00000000  0.24295774  0.00000000       0.000
   0.00000000  0.24647888  0.00000000       0.000
   0.00000000  0.25000002  0.00000000       0.000
   0.00000000  0.25352114  0.00000000       0.000
   0.00000000  0.25704226  0.00000000       0.000
   0.00000000  0.26056340  0.00000000       0.000
   0.00000000  0.26408452  0.00000000       0.000
   0.00000000  0.26760564  0.00000000       0.000
   0.00000000  0.27112674  0.00000000       0.000
   0.00000000  0.27464790  0.00000000       0.000
   0.00000000  0.27816904  0.00000000       0.000
   0.00000000  0.28169016  0.00000000       0.000
   0.00000000  0.28521126  0.00000000       0.000
   0.00000000  0.28873240  0.00000000       0.000
   0.00000000  0.29225356  0.00000000       0.000
   0.00000000  0.29577466  0.00000000       0.000
   0.00000000  0.29929578  0.00000000       0.000
   0.00000000  0.30281692  0.00000000       0.000
   0.00000000  0.30633804  0.00000000       0.000
   0.00000000  0.30985916  0.00000000       0.000
   0.00000000  0.31338028  0.00000000       0.000
   0.00000000  0.31690142  0.00000000       0.000
   0.00000000  0.32042256  0.00000000       0.000
   0.00000000  0.32394368  0.00000000       0.000
   0.00000000  0.32746478  0.00000000       0.000
   0.00000000  0.33098594  0.00000000       0.000
   0.00000000  0.33450708  0.00000000       0.000
   0.00000000  0.33802820  0.00000000       0.000
   0.00000000  0.34154930  0.00000000       0.000
   0.00000000  0.34507046  0.00000000       0.000
   0.00000000  0.34859156  0.00000000       0.000
   0.00000000  0.35211268  0.00000000       0.000
   0.00000000  0.35563380  0.00000000       0.000
   0.00000000  0.35915496  0.00000000       0.000
   0.00000000  0.36267608  0.00000000       0.000
   0.00000000  0.36619720  0.00000000       0.000
   0.00000000  0.36971832  0.00000000       0.000
   0.00000000  0.37323942  0.00000000       0.000
   0.00000000  0.37676060  0.00000000       0.000
   0.00000000  0.38028172  0.00000000       0.000
   0.00000000  0.38380284  0.00000000       0.000
   0.00000000  0.38732398  0.00000000       0.000
   0.00000000  0.39084510  0.00000000       0.000
   0.00000000  0.39436620  0.00000000       0.000
   0.00000000  0.39788732  0.00000000       0.000
   0.00000000  0.40140844  0.00000000       0.000
   0.00000000  0.40492960  0.00000000       0.000
   0.00000000  0.40845072  0.00000000       0.000
   0.00000000  0.41197184  0.00000000       0.000
   0.00000000  0.41549298  0.00000000       0.000
   0.00000000  0.41901412  0.00000000       0.000
   0.00000000  0.42253524  0.00000000       0.000
   0.00000000  0.42605636  0.00000000       0.000
   0.00000000  0.42957746  0.00000000       0.000
   0.00000000  0.43309862  0.00000000       0.000
   0.00000000  0.43661972  0.00000000       0.000
   0.00000000  0.44014084  0.00000000       0.000
   0.00000000  0.44366202  0.00000000       0.000
   0.00000000  0.44718314  0.00000000       0.000
   0.00000000  0.45070424  0.00000000       0.000
   0.00000000  0.45422536  0.00000000       0.000
   0.00000000  0.45774648  0.00000000       0.000
   0.00000000  0.46126766  0.00000000       0.000
   0.00000000  0.46478876  0.00000000       0.000
   0.00000000  0.46830988  0.00000000       0.000
   0.00000000  0.47183102  0.00000000       0.000
   0.00000000  0.47535214  0.00000000       0.000
   0.00000000  0.47887326  0.00000000       0.000
   0.00000000  0.48239436  0.00000000       0.000
   0.00000000  0.48591548  0.00000000       0.000
   0.00000000  0.48943666  0.00000000       0.000
   0.00000000  0.49295778  0.00000000       0.000
   0.00000000  0.49647888  0.00000000       0.000
   0.00000000  0.50000006  0.00000000       0.000
   0.00000000  0.50352114  0.00000000       0.000
   0.00000000  0.50704228  0.00000000       0.000
   0.00000000  0.51056338  0.00000000       0.000
   0.00000000  0.51408452  0.00000000       0.000
   0.00000000  0.51760566  0.00000000       0.000
   0.00000000  0.52112680  0.00000000       0.000
   0.00000000  0.52464790  0.00000000       0.000
   0.00000000  0.52816904  0.00000000       0.000
   0.00000000  0.53169018  0.00000000       0.000
   0.00000000  0.53521126  0.00000000       0.000
   0.00000000  0.53873240  0.00000000       0.000
   0.00000000  0.54225350  0.00000000       0.000
   0.00000000  0.54577470  0.00000000       0.000
   0.00000000  0.54929578  0.00000000       0.000
   0.00000000  0.55281692  0.00000000       0.000
   0.00000000  0.55633808  0.00000000       0.000
   0.00000000  0.55985922  0.00000000       0.000
   0.00000000  0.56338030  0.00000000       0.000
   0.00000000  0.56690144  0.00000000       0.000
   0.00000000  0.57042254  0.00000000       0.000
   0.00000000  0.57394368  0.00000000       0.000
   0.00000000  0.57746482  0.00000000       0.000
   0.00000000  0.58098590  0.00000000       0.000
   0.00000000  0.58450710  0.00000000       0.000
   0.00000000  0.58802820  0.00000000       0.000
   0.00000000  0.59154934  0.00000000       0.000
   0.00000000  0.59507042  0.00000000       0.000
   0.00000000  0.59859156  0.00000000       0.000
   0.00000000  0.60211272  0.00000000       0.000
   0.00000000  0.60563386  0.00000000       0.000
   0.00000000  0.60915494  0.00000000       0.000
   0.00000000  0.61267608  0.00000000       0.000
   0.00000000  0.61619722  0.00000000       0.000
   0.00000000  0.61971832  0.00000000       0.000
   0.00000000  0.62323946  0.00000000       0.000
   0.00000000  0.62676054  0.00000000       0.000
   0.00000000  0.63028174  0.00000000       0.000
   0.00000000  0.63380284  0.00000000       0.000
   0.00000000  0.63732398  0.00000000       0.000
   0.00000000  0.64084512  0.00000000       0.000
   0.00000000  0.64436626  0.00000000       0.000
   0.00000000  0.64788734  0.00000000       0.000
   0.00000000  0.65140850  0.00000000       0.000
   0.00000000  0.65492958  0.00000000       0.000
   0.00000000  0.65845072  0.00000000       0.000
   0.00000000  0.66197186  0.00000000       0.000
   0.00000000  0.66549296  0.00000000       0.000
   0.00000000  0.66901416  0.00000000       0.000
   0.00000000  0.67253524  0.00000000       0.000
   0.00000000  0.67605638  0.00000000       0.000
   0.00000000  0.67957746  0.00000000       0.000
   0.00000000  0.68309862  0.00000000       0.000
   0.00000000  0.68661976  0.00000000       0.000
   0.00000000  0.69014090  0.00000000       0.000
   0.00000000  0.69366198  0.00000000       0.000
   0.00000000  0.69718314  0.00000000       0.000
   0.00000000  0.70070428  0.00000000       0.000
   0.00000000  0.70422536  0.00000000       0.000
   0.00000000  0.70774650  0.00000000       0.000
   0.00000000  0.71126760  0.00000000       0.000
   0.00000000  0.71478874  0.00000000       0.000
   0.00000000  0.71830994  0.00000000       0.000
   0.00000000  0.72183102  0.00000000       0.000
   0.00000000  0.72535216  0.00000000       0.000
   0.00000000  0.72887326  0.00000000       0.000
   0.00000000  0.73239440  0.00000000       0.000
   0.00000000  0.73591554  0.00000000       0.000
   0.00000000  0.73943662  0.00000000       0.000
   0.00000000  0.74295778  0.00000000       0.000
   0.00000000  0.74647886  0.00000000       0.000
   0.00000000  0.75000006  0.00000000       0.000
   0.00000000  0.75352120  0.00000000       0.000
   0.00000000  0.75704228  0.00000000       0.000
   0.00000000  0.76056344  0.00000000       0.000
   0.00000000  0.76408452  0.00000000       0.000
   0.00000000  0.76760566  0.00000000       0.000
   0.00000000  0.77112674  0.00000000       0.000
   0.00000000  0.77464796  0.00000000       0.000
   0.00000000  0.77816910  0.00000000       0.000
   0.00000000  0.78169018  0.00000000       0.000
   0.00000000  0.78521132  0.00000000       0.000
   0.00000000  0.78873240  0.00000000       0.000
   0.00000000  0.79225356  0.00000000       0.000
   0.00000000  0.79577464  0.00000000       0.000
   0.00000000  0.79929578  0.00000000       0.000
   0.00000000  0.80281686  0.00000000       0.000
   0.00000000  0.80633808  0.00000000       0.000
   0.00000000  0.80985922  0.00000000       0.000
   0.00000000  0.81338030  0.00000000       0.000
   0.00000000  0.81690144  0.00000000       0.000
   0.00000000  0.82042254  0.00000000       0.000
   0.00000000  0.82394368  0.00000000       0.000
   0.00000000  0.82746482  0.00000000       0.000
   0.00000000  0.83098596  0.00000000       0.000
   0.00000000  0.83450710  0.00000000       0.000
   0.00000000  0.83802826  0.00000000       0.000
   0.00000000  0.84154934  0.00000000       0.000
   0.00000000  0.84507048  0.00000000       0.000
   0.00000000  0.84859156  0.00000000       0.000
   0.00000000  0.85211272  0.00000000       0.000
   0.00000000  0.85563380  0.00000000       0.000
   0.00000000  0.85915494  0.00000000       0.000
   0.00000000  0.86267614  0.00000000       0.000
   0.00000000  0.86619722  0.00000000       0.000
   0.00000000  0.86971838  0.00000000       0.000
   0.00000000  0.87323946  0.00000000       0.000
   0.00000000  0.87676060  0.00000000       0.000
   0.00000000  0.88028168  0.00000000       0.000
   0.00000000  0.88380284  0.00000000       0.000
   0.00000000  0.88732404  0.00000000       0.000
   0.00000000  0.89084512  0.00000000       0.000
   0.00000000  0.89436626  0.00000000       0.000
   0.00000000  0.89788734  0.00000000       0.000
   0.00000000  0.90140850  0.00000000       0.000
   0.00000000  0.90492958  0.00000000       0.000
   0.00000000  0.90845072  0.00000000       0.000
   0.00000000  0.91197186  0.00000000       0.000
   0.00000000  0.91549296  0.00000000       0.000
   0.00000000  0.91901416  0.00000000       0.000
   0.00000000  0.92253530  0.00000000       0.000
   0.00000000  0.92605638  0.00000000       0.000
   0.00000000  0.92957752  0.00000000       0.000
   0.00000000  0.93309862  0.00000000       0.000
   0.00000000  0.93661976  0.00000000       0.000
   0.00000000  0.94014084  0.00000000       0.000
   0.00000000  0.94366204  0.00000000       0.000
   0.00000000  0.94718320  0.00000000       0.000
   0.00000000  0.95070428  0.00000000       0.000
   0.00000000  0.95422542  0.00000000       0.000
   0.00000000  0.95774650  0.00000000       0.000
   0.00000000  0.96126766  0.00000000       0.000
   0.00000000  0.96478874  0.00000000       0.000
   0.00000000  0.96830988  0.00000000       0.000
   0.00000000  0.97183096  0.00000000       0.000
   0.00000000  0.97535216  0.00000000       0.000
   0.00000000  0.97887332  0.00000000       0.000
   0.00000000  0.98239440  0.00000000       0.000
   0.00000000  0.98591554  0.00000000       0.000
   0.00000000  0.98943662  0.00000000       0.000
   0.00000000  0.99295778  0.00000000       0.000
   0.00000000  0.99647886  0.00000000       0.000
 
 k-points in reciprocal lattice and weights: Automatically generated mesh: SCF=15, 0.
   0.00000000  0.00000000  0.00000000       0.005
   0.16666667  0.00000000  0.00000000       0.039
   0.33333333  0.00000000  0.00000000       0.039
   0.50000000  0.00000000  0.00000000       0.020
   0.16666667  0.16666667  0.00000000       0.029
   0.33333333  0.16666667  0.00000000       0.118
   0.50000000  0.16666667  0.00000000       0.118
  -0.33333333  0.16666667  0.00000000       0.118
  -0.16666667  0.16666667  0.00000000       0.059
   0.33333333  0.33333333  0.00000000       0.029
   0.50000000  0.33333333  0.00000000       0.118
  -0.33333333  0.33333333  0.00000000       0.059
   0.50000000  0.50000000  0.00000000       0.015
   0.50000000  0.33333333  0.16666667       0.118
  -0.33333333  0.33333333  0.16666667       0.118
   0.00000000  0.00000000  0.00000000       0.000
   0.00176056  0.00000000  0.00176056       0.000
   0.00352113  0.00000000  0.00352113       0.000
   0.00528169  0.00000000  0.00528169       0.000
   0.00704225  0.00000000  0.00704225       0.000
   0.00880282  0.00000000  0.00880282       0.000
   0.01056338  0.00000000  0.01056338       0.000
   0.01232394  0.00000000  0.01232394       0.000
   0.01408451  0.00000000  0.01408451       0.000
   0.01584507  0.00000000  0.01584507       0.000
   0.01760563  0.00000000  0.01760563       0.000
   0.01936620  0.00000000  0.01936620       0.000
   0.02112676  0.00000000  0.02112676       0.000
   0.02288732  0.00000000  0.02288732       0.000
   0.02464789  0.00000000  0.02464789       0.000
   0.02640845  0.00000000  0.02640845       0.000
   0.02816902  0.00000000  0.02816902       0.000
   0.02992958  0.00000000  0.02992958       0.000
   0.03169014  0.00000000  0.03169014       0.000
   0.03345070  0.00000000  0.03345070       0.000
   0.03521127  0.00000000  0.03521127       0.000
   0.03697183  0.00000000  0.03697183       0.000
   0.03873239  0.00000000  0.03873239       0.000
   0.04049296  0.00000000  0.04049296       0.000
   0.04225352  0.00000000  0.04225352       0.000
   0.04401409  0.00000000  0.04401409       0.000
   0.04577465  0.00000000  0.04577465       0.000
   0.04753521  0.00000000  0.04753521       0.000
   0.04929578  0.00000000  0.04929578       0.000
   0.05105634  0.00000000  0.05105634       0.000
   0.05281691  0.00000000  0.05281691       0.000
   0.05457747  0.00000000  0.05457747       0.000
   0.05633803  0.00000000  0.05633803       0.000
   0.05809860  0.00000000  0.05809860       0.000
   0.05985916  0.00000000  0.05985916       0.000
   0.06161972  0.00000000  0.06161972       0.000
   0.06338029  0.00000000  0.06338029       0.000
   0.06514085  0.00000000  0.06514085       0.000
   0.06690141  0.00000000  0.06690141       0.000
   0.06866197  0.00000000  0.06866197       0.000
   0.07042254  0.00000000  0.07042254       0.000
   0.07218310  0.00000000  0.07218310       0.000
   0.07394367  0.00000000  0.07394367       0.000
   0.07570423  0.00000000  0.07570423       0.000
   0.07746479  0.00000000  0.07746479       0.000
   0.07922535  0.00000000  0.07922535       0.000
   0.08098592  0.00000000  0.08098592       0.000
   0.08274648  0.00000000  0.08274648       0.000
   0.08450705  0.00000000  0.08450705       0.000
   0.08626761  0.00000000  0.08626761       0.000
   0.08802817  0.00000000  0.08802817       0.000
   0.08978874  0.00000000  0.08978874       0.000
   0.09154930  0.00000000  0.09154930       0.000
   0.09330986  0.00000000  0.09330986       0.000
   0.09507043  0.00000000  0.09507043       0.000
   0.09683099  0.00000000  0.09683099       0.000
   0.09859155  0.00000000  0.09859155       0.000
   0.10035211  0.00000000  0.10035211       0.000
   0.10211268  0.00000000  0.10211268       0.000
   0.10387325  0.00000000  0.10387325       0.000
   0.10563381  0.00000000  0.10563381       0.000
   0.10739437  0.00000000  0.10739437       0.000
   0.10915493  0.00000000  0.10915493       0.000
   0.11091550  0.00000000  0.11091550       0.000
   0.11267606  0.00000000  0.11267606       0.000
   0.11443662  0.00000000  0.11443662       0.000
   0.11619719  0.00000000  0.11619719       0.000
   0.11795776  0.00000000  0.11795776       0.000
   0.11971831  0.00000000  0.11971831       0.000
   0.12147887  0.00000000  0.12147887       0.000
   0.12323944  0.00000000  0.12323944       0.000
   0.12500001  0.00000000  0.12500001       0.000
   0.12676057  0.00000000  0.12676057       0.000
   0.12852113  0.00000000  0.12852113       0.000
   0.13028170  0.00000000  0.13028170       0.000
   0.13204226  0.00000000  0.13204226       0.000
   0.13380282  0.00000000  0.13380282       0.000
   0.13556337  0.00000000  0.13556337       0.000
   0.13732395  0.00000000  0.13732395       0.000
   0.13908452  0.00000000  0.13908452       0.000
   0.14084508  0.00000000  0.14084508       0.000
   0.14260563  0.00000000  0.14260563       0.000
   0.14436620  0.00000000  0.14436620       0.000
   0.14612678  0.00000000  0.14612678       0.000
   0.14788733  0.00000000  0.14788733       0.000
   0.14964789  0.00000000  0.14964789       0.000
   0.15140846  0.00000000  0.15140846       0.000
   0.15316902  0.00000000  0.15316902       0.000
   0.15492958  0.00000000  0.15492958       0.000
   0.15669014  0.00000000  0.15669014       0.000
   0.15845071  0.00000000  0.15845071       0.000
   0.16021128  0.00000000  0.16021128       0.000
   0.16197184  0.00000000  0.16197184       0.000
   0.16373239  0.00000000  0.16373239       0.000
   0.16549297  0.00000000  0.16549297       0.000
   0.16725354  0.00000000  0.16725354       0.000
   0.16901410  0.00000000  0.16901410       0.000
   0.17077465  0.00000000  0.17077465       0.000
   0.17253523  0.00000000  0.17253523       0.000
   0.17429578  0.00000000  0.17429578       0.000
   0.17605634  0.00000000  0.17605634       0.000
   0.17781690  0.00000000  0.17781690       0.000
   0.17957748  0.00000000  0.17957748       0.000
   0.18133804  0.00000000  0.18133804       0.000
   0.18309860  0.00000000  0.18309860       0.000
   0.18485916  0.00000000  0.18485916       0.000
   0.18661971  0.00000000  0.18661971       0.000
   0.18838030  0.00000000  0.18838030       0.000
   0.19014086  0.00000000  0.19014086       0.000
   0.19190142  0.00000000  0.19190142       0.000
   0.19366199  0.00000000  0.19366199       0.000
   0.19542255  0.00000000  0.19542255       0.000
   0.19718310  0.00000000  0.19718310       0.000
   0.19894366  0.00000000  0.19894366       0.000
   0.20070422  0.00000000  0.20070422       0.000
   0.20246480  0.00000000  0.20246480       0.000
   0.20422536  0.00000000  0.20422536       0.000
   0.20598592  0.00000000  0.20598592       0.000
   0.20774649  0.00000000  0.20774649       0.000
   0.20950706  0.00000000  0.20950706       0.000
   0.21126762  0.00000000  0.21126762       0.000
   0.21302818  0.00000000  0.21302818       0.000
   0.21478873  0.00000000  0.21478873       0.000
   0.21654931  0.00000000  0.21654931       0.000
   0.21830986  0.00000000  0.21830986       0.000
   0.22007042  0.00000000  0.22007042       0.000
   0.22183101  0.00000000  0.22183101       0.000
   0.22359157  0.00000000  0.22359157       0.000
   0.22535212  0.00000000  0.22535212       0.000
   0.22711268  0.00000000  0.22711268       0.000
   0.22887324  0.00000000  0.22887324       0.000
   0.23063383  0.00000000  0.23063383       0.000
   0.23239438  0.00000000  0.23239438       0.000
   0.23415494  0.00000000  0.23415494       0.000
   0.23591551  0.00000000  0.23591551       0.000
   0.23767607  0.00000000  0.23767607       0.000
   0.23943663  0.00000000  0.23943663       0.000
   0.24119718  0.00000000  0.24119718       0.000
   0.24295774  0.00000000  0.24295774       0.000
   0.24471833  0.00000000  0.24471833       0.000
   0.24647889  0.00000000  0.24647889       0.000
   0.24823944  0.00000000  0.24823944       0.000
   0.25000003  0.00000000  0.25000003       0.000
   0.25176057  0.00000000  0.25176057       0.000
   0.25352114  0.00000000  0.25352114       0.000
   0.25528169  0.00000000  0.25528169       0.000
   0.25704226  0.00000000  0.25704226       0.000
   0.25880283  0.00000000  0.25880283       0.000
   0.26056340  0.00000000  0.26056340       0.000
   0.26232395  0.00000000  0.26232395       0.000
   0.26408452  0.00000000  0.26408452       0.000
   0.26584509  0.00000000  0.26584509       0.000
   0.26760563  0.00000000  0.26760563       0.000
   0.26936620  0.00000000  0.26936620       0.000
   0.27112675  0.00000000  0.27112675       0.000
   0.27288735  0.00000000  0.27288735       0.000
   0.27464789  0.00000000  0.27464789       0.000
   0.27640846  0.00000000  0.27640846       0.000
   0.27816904  0.00000000  0.27816904       0.000
   0.27992961  0.00000000  0.27992961       0.000
   0.28169015  0.00000000  0.28169015       0.000
   0.28345072  0.00000000  0.28345072       0.000
   0.28521127  0.00000000  0.28521127       0.000
   0.28697184  0.00000000  0.28697184       0.000
   0.28873241  0.00000000  0.28873241       0.000
   0.29049295  0.00000000  0.29049295       0.000
   0.29225355  0.00000000  0.29225355       0.000
   0.29401410  0.00000000  0.29401410       0.000
   0.29577467  0.00000000  0.29577467       0.000
   0.29753521  0.00000000  0.29753521       0.000
   0.29929578  0.00000000  0.29929578       0.000
   0.30105636  0.00000000  0.30105636       0.000
   0.30281693  0.00000000  0.30281693       0.000
   0.30457747  0.00000000  0.30457747       0.000
   0.30633804  0.00000000  0.30633804       0.000
   0.30809861  0.00000000  0.30809861       0.000
   0.30985916  0.00000000  0.30985916       0.000
   0.31161973  0.00000000  0.31161973       0.000
   0.31338027  0.00000000  0.31338027       0.000
   0.31514087  0.00000000  0.31514087       0.000
   0.31690142  0.00000000  0.31690142       0.000
   0.31866199  0.00000000  0.31866199       0.000
   0.32042256  0.00000000  0.32042256       0.000
   0.32218313  0.00000000  0.32218313       0.000
   0.32394367  0.00000000  0.32394367       0.000
   0.32570425  0.00000000  0.32570425       0.000
   0.32746479  0.00000000  0.32746479       0.000
   0.32922536  0.00000000  0.32922536       0.000
   0.33098593  0.00000000  0.33098593       0.000
   0.33274648  0.00000000  0.33274648       0.000
   0.33450708  0.00000000  0.33450708       0.000
   0.33626762  0.00000000  0.33626762       0.000
   0.33802819  0.00000000  0.33802819       0.000
   0.33978873  0.00000000  0.33978873       0.000
   0.34154931  0.00000000  0.34154931       0.000
   0.34330988  0.00000000  0.34330988       0.000
   0.34507045  0.00000000  0.34507045       0.000
   0.34683099  0.00000000  0.34683099       0.000
[...]
      4       2.4150      2.00000
      5       6.6459      0.00000
      6       7.1229      0.00000
      7      15.9914      0.00000
      8      15.9914      0.00000

 k-point   266 :       0.4401    0.0000    0.4401
  band No.  band energies     occupation 
      1      -4.1663      2.00000
      2      -2.0932      2.00000
      3       2.4111      2.00000
      4       2.4111      2.00000
      5       6.6475      0.00000
      6       7.1106      0.00000
      7      16.0269      0.00000
      8      16.0269      0.00000

 k-point   267 :       0.4419    0.0000    0.4419
  band No.  band energies     occupation 
      1      -4.1385      2.00000
      2      -2.1260      2.00000
      3       2.4073      2.00000
      4       2.4073      2.00000
      5       6.6492      0.00000
      6       7.0985      0.00000
      7      16.0622      0.00000
      8      16.0623      0.00000

 k-point   268 :       0.4437    0.0000    0.4437
  band No.  band energies     occupation 
      1      -4.1106      2.00000
      2      -2.1588      2.00000
      3       2.4037      2.00000
      4       2.4037      2.00000
      5       6.6511      0.00000
      6       7.0866      0.00000
      7      16.0976      0.00000
      8      16.0976      0.00000

 k-point   269 :       0.4454    0.0000    0.4454
  band No.  band energies     occupation 
      1      -4.0825      2.00000
      2      -2.1915      2.00000
      3       2.4001      2.00000
      4       2.4001      2.00000
      5       6.6531      0.00000
      6       7.0748      0.00000
      7      16.1328      0.00000
      8      16.1331      0.00000

 k-point   270 :       0.4472    0.0000    0.4472
  band No.  band energies     occupation 
      1      -4.0544      2.00000
      2      -2.2241      2.00000
      3       2.3967      2.00000
      4       2.3967      2.00000
      5       6.6553      0.00000
      6       7.0632      0.00000
      7      16.1680      0.00000
      8      16.1681      0.00000

 k-point   271 :       0.4489    0.0000    0.4489
  band No.  band energies     occupation 
      1      -4.0263      2.00000
      2      -2.2567      2.00000
      3       2.3934      2.00000
      4       2.3934      2.00000
      5       6.6576      0.00000
      6       7.0517      0.00000
      7      16.2031      0.00000
      8      16.2032      0.00000

 k-point   272 :       0.4507    0.0000    0.4507
  band No.  band energies     occupation 
      1      -3.9980      2.00000
      2      -2.2892      2.00000
      3       2.3902      2.00000
      4       2.3902      2.00000
      5       6.6600      0.00000
      6       7.0404      0.00000
      7      16.2381      0.00000
      8      16.2381      0.00000

 k-point   273 :       0.4525    0.0000    0.4525
  band No.  band energies     occupation 
      1      -3.9696      2.00000
      2      -2.3217      2.00000
      3       2.3871      2.00000
      4       2.3871      2.00000
      5       6.6626      0.00000
      6       7.0293      0.00000
      7      16.2730      0.00000
      8      16.2730      0.00000

 k-point   274 :       0.4542    0.0000    0.4542
  band No.  band energies     occupation 
      1      -3.9412      2.00000
      2      -2.3540      2.00000
      3       2.3841      2.00000
      4       2.3841      2.00000
      5       6.6654      0.00000
      6       7.0183      0.00000
      7      16.3077      0.00000
      8      16.3077      0.00000

 k-point   275 :       0.4560    0.0000    0.4560
  band No.  band energies     occupation 
      1      -3.9127      2.00000
      2      -2.3864      2.00000
      3       2.3812      2.00000
      4       2.3812      2.00000
      5       6.6682      0.00000
      6       7.0075      0.00000
      7      16.3424      0.00000
      8      16.3424      0.00000

 k-point   276 :       0.4577    0.0000    0.4577
  band No.  band energies     occupation 
      1      -3.8840      2.00000
      2      -2.4186      2.00000
      3       2.3784      2.00000
      4       2.3784      2.00000
      5       6.6713      0.00000
      6       6.9968      0.00000
      7      16.3768      0.00000
      8      16.3770      0.00000

 k-point   277 :       0.4595    0.0000    0.4595
  band No.  band energies     occupation 
      1      -3.8553      2.00000
      2      -2.4508      2.00000
      3       2.3758      2.00000
      4       2.3758      2.00000
      5       6.6745      0.00000
      6       6.9863      0.00000
      7      16.4111      0.00000
      8      16.4114      0.00000

 k-point   278 :       0.4613    0.0000    0.4613
  band No.  band energies     occupation 
      1      -3.8266      2.00000
      2      -2.4830      2.00000
      3       2.3733      2.00000
      4       2.3733      2.00000
      5       6.6778      0.00000
      6       6.9760      0.00000
      7      16.4453      0.00000
      8      16.4455      0.00000

 k-point   279 :       0.4630    0.0000    0.4630
  band No.  band energies     occupation 
      1      -3.7977      2.00000
      2      -2.5150      2.00000
      3       2.3708      2.00000
      4       2.3708      2.00000
      5       6.6813      0.00000
      6       6.9659      0.00000
      7      16.4790      0.00000
      8      16.4796      0.00000

 k-point   280 :       0.4648    0.0000    0.4648
  band No.  band energies     occupation 
      1      -3.7687      2.00000
      2      -2.5470      2.00000
      3       2.3685      2.00000
      4       2.3685      2.00000
      5       6.6849      0.00000
      6       6.9559      0.00000
      7      16.5126      0.00000
      8      16.5168      0.00000

 k-point   281 :       0.4665    0.0000    0.4665
  band No.  band energies     occupation 
      1      -3.7397      2.00000
      2      -2.5790      2.00000
      3       2.3663      2.00000
      4       2.3663      2.00000
      5       6.6887      0.00000
      6       6.9460      0.00000
      7      16.5458      0.00000
      8      16.5459      0.00000

 k-point   282 :       0.4683    0.0000    0.4683
  band No.  band energies     occupation 
      1      -3.7106      2.00000
      2      -2.6108      2.00000
      3       2.3643      2.00000
      4       2.3643      2.00000
      5       6.6926      0.00000
      6       6.9363      0.00000
      7      16.5787      0.00000
      8      16.5788      0.00000

 k-point   283 :       0.4701    0.0000    0.4701
  band No.  band energies     occupation 
      1      -3.6814      2.00000
      2      -2.6426      2.00000
      3       2.3623      2.00000
      4       2.3623      2.00000
      5       6.6967      0.00000
      6       6.9268      0.00000
      7      16.6113      0.00000
      8      16.6114      0.00000

 k-point   284 :       0.4718    0.0000    0.4718
  band No.  band energies     occupation 
      1      -3.6521      2.00000
      2      -2.6744      2.00000
      3       2.3604      2.00000
      4       2.3604      2.00000
      5       6.7009      0.00000
      6       6.9175      0.00000
      7      16.6436      0.00000
      8      16.6444      0.00000

 k-point   285 :       0.4736    0.0000    0.4736
  band No.  band energies     occupation 
      1      -3.6227      2.00000
      2      -2.7061      2.00000
      3       2.3587      2.00000
      4       2.3587      2.00000
      5       6.7053      0.00000
      6       6.9083      0.00000
      7      16.6749      0.00000
      8      16.6776      0.00000

 k-point   286 :       0.4754    0.0000    0.4754
  band No.  band energies     occupation 
      1      -3.5933      2.00000
      2      -2.7377      2.00000
      3       2.3570      2.00000
      4       2.3570      2.00000
      5       6.7099      0.00000
      6       6.8992      0.00000
      7      16.7063      0.00000
      8      16.7081      0.00000

 k-point   287 :       0.4771    0.0000    0.4771
  band No.  band energies     occupation 
      1      -3.5638      2.00000
      2      -2.7692      2.00000
      3       2.3555      2.00000
      4       2.3555      2.00000
      5       6.7145      0.00000
      6       6.8903      0.00000
      7      16.7360      0.00000
      8      16.7369      0.00000

 k-point   288 :       0.4789    0.0000    0.4789
  band No.  band energies     occupation 
      1      -3.5342      2.00000
      2      -2.8007      2.00000
      3       2.3541      2.00000
      4       2.3541      2.00000
      5       6.7194      0.00000
      6       6.8816      0.00000
      7      16.7660      0.00000
      8      16.7674      0.00000

 k-point   289 :       0.4806    0.0000    0.4806
  band No.  band energies     occupation 
      1      -3.5045      2.00000
      2      -2.8321      2.00000
      3       2.3528      2.00000
      4       2.3528      2.00000
      5       6.7244      0.00000
      6       6.8731      0.00000
      7      16.7944      0.00000
      8      16.8074      0.00000

 k-point   290 :       0.4824    0.0000    0.4824
  band No.  band energies     occupation 
      1      -3.4747      2.00000
      2      -2.8634      2.00000
      3       2.3516      2.00000
      4       2.3516      2.00000
      5       6.7295      0.00000
      6       6.8647      0.00000
      7      16.8217      0.00000
      8      16.8280      0.00000

 k-point   291 :       0.4842    0.0000    0.4842
  band No.  band energies     occupation 
      1      -3.4449      2.00000
      2      -2.8947      2.00000
      3       2.3506      2.00000
      4       2.3506      2.00000
      5       6.7348      0.00000
      6       6.8564      0.00000
      7      16.8475      0.00000
      8      16.8571      0.00000

 k-point   292 :       0.4859    0.0000    0.4859
  band No.  band energies     occupation 
      1      -3.4150      2.00000
      2      -2.9259      2.00000
      3       2.3496      2.00000
      4       2.3496      2.00000
      5       6.7402      0.00000
      6       6.8483      0.00000
      7      16.8724      0.00000
      8      16.8990      0.00000

 k-point   293 :       0.4877    0.0000    0.4877
  band No.  band energies     occupation 
      1      -3.3850      2.00000
      2      -2.9570      2.00000
      3       2.3488      2.00000
      4       2.3488      2.00000
      5       6.7458      0.00000
      6       6.8404      0.00000
      7      16.8945      0.00000
      8      16.9006      0.00000

 k-point   294 :       0.4894    0.0000    0.4894
  band No.  band energies     occupation 
      1      -3.3549      2.00000
      2      -2.9880      2.00000
      3       2.3480      2.00000
      4       2.3480      2.00000
      5       6.7516      0.00000
      6       6.8326      0.00000
      7      16.9159      0.00000
      8      16.9276      0.00000

 k-point   295 :       0.4912    0.0000    0.4912
  band No.  band energies     occupation 
      1      -3.3247      2.00000
      2      -3.0190      2.00000
      3       2.3474      2.00000
      4       2.3474      2.00000
      5       6.7575      0.00000
      6       6.8250      0.00000
      7      16.9336      0.00000
      8      16.9372      0.00000

 k-point   296 :       0.4930    0.0000    0.4930
  band No.  band energies     occupation 
      1      -3.2945      2.00000
      2      -3.0499      2.00000
      3       2.3469      2.00000
      4       2.3469      2.00000
      5       6.7635      0.00000
      6       6.8176      0.00000
      7      16.9493      0.00000
      8      16.9543      0.00000

 k-point   297 :       0.4947    0.0000    0.4947
  band No.  band energies     occupation 
      1      -3.2642      2.00000
      2      -3.0807      2.00000
      3       2.3465      2.00000
      4       2.3465      2.00000
      5       6.7698      0.00000
      6       6.8103      0.00000
      7      16.9647      0.00000
      8      16.9702      0.00000

 k-point   298 :       0.4965    0.0000    0.4965
  band No.  band energies     occupation 
      1      -3.2338      2.00000
      2      -3.1115      2.00000
      3       2.3462      2.00000
      4       2.3462      2.00000
      5       6.7761      0.00000
      6       6.8031      0.00000
      7      16.9713      0.00000
      8      16.9993      0.00000

 k-point   299 :       0.4982    0.0000    0.4982
  band No.  band energies     occupation 
      1      -3.2033      2.00000
      2      -3.1422      2.00000
      3       2.3460      2.00000
      4       2.3460      2.00000
      5       6.7826      0.00000
      6       6.7961      0.00000
      7      16.9772      0.00000
      8      16.9783      0.00000


--------------------------------------------------------------------------------------------------------


 soft charge-density along one line, spin component           1
         0         1         2         3         4         5         6         7         8         9
 total charge-density along one line
 
 pseudopotential strength for first ion, spin component:           1
 17.851  24.907   0.000  -0.000   0.000   0.000  -0.000   0.000
 24.907  34.756   0.000  -0.000   0.000   0.000  -0.000   0.000
  0.000   0.000   4.076   0.000  -0.000   7.598   0.000  -0.000
 -0.000  -0.000   0.000   4.076   0.000   0.000   7.598   0.000
  0.000   0.000  -0.000   0.000   4.076  -0.000   0.000   7.598
  0.000   0.000   7.598   0.000  -0.000  14.174   0.000  -0.000
 -0.000  -0.000   0.000   7.598   0.000   0.000  14.174   0.000
  0.000   0.000  -0.000   0.000   7.598  -0.000   0.000  14.174
 total augmentation occupancy for first ion, spin component:           1
 11.034  -5.196   0.000  -0.000   0.000   0.000   0.000   0.000
 -5.196   2.499   0.000   0.000   0.000   0.000   0.000   0.000
  0.000   0.000   3.934  -0.000   0.000  -1.044   0.000   0.000
 -0.000   0.000   0.000   3.934   0.000  -0.000  -1.044  -0.000
  0.000   0.000   0.000   0.000   3.934   0.000  -0.000  -1.044
 -0.000   0.000  -1.044  -0.000  -0.000   0.283   0.000  -0.000
 -0.000   0.000   0.000  -1.044   0.000  -0.000   0.283  -0.000
 -0.000  -0.000   0.000  -0.000  -1.044  -0.000  -0.000   0.283


------------------------ aborting loop because EDIFF is reached ----------------------------------------


 


 total charge     
 
# of ion     s       p       d       tot
----------------------------------------
  1        0.753   0.972   0.000   1.725
  2        0.753   0.972   0.000   1.725
------------------------------------------------
tot        1.507   1.944   0.000   3.451
 
    FORLOC:  cpu time    0.0000: real time    0.0002
    FORHF :  cpu time   20.8333: real time   20.8468
    FORNL :  cpu time    0.0080: real time    0.0083
    STRESS:  cpu time    0.1040: real time    0.1052
    FORCOR:  cpu time    0.0200: real time    0.0199
    OFIELD:  cpu time    0.0000: real time    0.0001

  FORCE on cell =-STRESS in cart. coord.  units (eV):
  Direction    XX          YY          ZZ          XY          YZ          ZX
  --------------------------------------------------------------------------------------
  Alpha Z     3.36229     3.36229     3.36229
  Ewald     -76.17385   -76.17385   -76.17385     0.00000     0.00000    -0.00000
  Hartree     5.05799     5.05799     5.05799     0.00000    -0.00000    -0.00000
  E(xc)     -19.65143   -19.65143   -19.65143     0.00000    -0.00000    -0.00000
  Local     -29.22459   -29.22459   -29.22459     0.00001    -0.00001    -0.00001
  n-local    70.64031    75.93210    75.18300    -1.16342    -2.37031    -0.76789
  augment   -10.65096   -10.65096   -10.65096    -0.00001     0.00001     0.00001
  Kinetic    55.07394    57.18276    58.59644    -1.13693    -3.67179    -1.06870
  Fock            NaN         NaN         NaN         NaN         NaN         NaN
  -------------------------------------------------------------------------------------
  Total           NaN         NaN         NaN         NaN         NaN         NaN
  in kB           NaN         NaN         NaN         NaN         NaN         NaN
  external pressure =         NaN kB  Pullay stress =        0.00 kB


 VOLUME and BASIS-vectors are now :
 -----------------------------------------------------------------------------
  energy-cutoff  :      500.00
  volume of cell :       40.05
      direct lattice vectors                 reciprocal lattice vectors
     2.715500000  2.715500000  0.000000000     0.184128153  0.184128153  0.184128153
     2.715500000  0.000000000 -2.715500000     0.184128153 -0.184128153 -0.184128153
     0.000000000  2.715500000 -2.715500000    -0.184128153  0.184128153 -0.184128153

  length of vectors
     3.840296929  3.840296929  3.840296929     0.318919316  0.318919316  0.318919316


 FORCES acting on ions:
    Electron-Ion                     Ewald-Force                    Non-Local-Force
 -----------------------------------------------------------------------------------------------
   -.757E-08 -.475E-08 0.475E-08   -.923E-14 -.515E-14 0.930E-14   -.121E-16 0.000E+00 0.486E-16
   0.757E-08 0.475E-08 -.475E-08   0.907E-14 0.563E-14 -.939E-14   0.364E-16 0.000E+00 -.139E-16
 -----------------------------------------------------------------------------------------------
   -.950E-08 -.164E-07 0.348E-07   -.164E-15 0.474E-15 -.970E-16   0.243E-16 0.000E+00 0.347E-16
 
 
 POSITION                                       TOTAL-FORCE (eV/Angst)
 -----------------------------------------------------------------------------------
      0.00000      0.00000      0.00000              NaN           NaN           NaN
      1.35775      1.35775     -1.35775              NaN           NaN           NaN
 -----------------------------------------------------------------------------------
    total drift:                                     NaN           NaN           NaN


--------------------------------------------------------------------------------------------------------



  FREE ENERGIE OF THE ION-ELECTRON SYSTEM (eV)
  ---------------------------------------------------
  free  energy   TOTEN  =       -12.22100391 eV

  energy  without entropy=      -12.22100391  energy(sigma->0) =      -12.22100391
 


--------------------------------------------------------------------------------------------------------


    POTLOK:  cpu time    0.0840: real time    0.0866


--------------------------------------------------------------------------------------------------------




--------------------------------------------------------------------------------------------------------


  
 reached required accuracy - stopping structural energy minimisation
 writing wavefunctions
     LOOP+:  cpu time  183.8875: real time  185.2923
    4ORBIT:  cpu time    0.0000: real time    0.0000
 


 total charge     
 
# of ion     s       p       d       tot
----------------------------------------
  1        0.753   0.972   0.000   1.725
  2        0.753   0.972   0.000   1.725
------------------------------------------------
tot        1.507   1.944   0.000   3.451
 

 total amount of memory used by VASP on root node    42412. kBytes
========================================================================

   base      :      30000. kBytes
   nonl-proj :       4293. kBytes
   fftplans  :        473. kBytes
   grid      :        621. kBytes
   one-center:          3. kBytes
   HF        :          4. kBytes
   nonlr-proj:        361. kBytes
   wavefun   :       6657. kBytes
 
  
  
 General timing and accounting informations for this job:
 ========================================================
  
                  Total CPU time used (sec):      206.041
                            User time (sec):      204.513
                          System time (sec):        1.528
                         Elapsed time (sec):      208.346
  
                   Maximum memory used (kb):      139672.
                   Average memory used (kb):           0.
  
                          Minor page faults:        35565
                          Major page faults:            0
                 Voluntary context switches:         1096
