    2    2    1    1
  0.3405476E+02  0.4583961E-09  0.4583961E-09  0.4583961E-09  0.5000000E-15
  1.000000000000000E-004
  CAR 
 Name                                    
     18    692     16
 
  0.0000000E+00  0.0000000E+00  0.0000000E+00  0.4629630E-02
    1       -9.084329   1.000000
    2       -6.141543   1.000000
    3       -6.141543   1.000000
    4       -6.141543   1.000000
    5       -5.876183   1.000000
    6       -5.876183   1.000000
    7        2.150357   1.000000
    8        2.150357   1.000000
    9        2.150357   1.000000
   10        2.698339   0.000000
   11        6.650316   0.000000
   12        6.650316   0.000000
   13        6.650316   0.000000
   14        9.363596   0.000000
   15       11.483516   0.000000
   16       11.483518   0.000000
 
  0.1666667E+00  0.0000000E+00  0.0000000E+00  0.3703704E-01
    1       -8.983103   1.000000
    2       -6.122702   1.000000
    3       -6.122702   1.000000
    4       -6.060167   1.000000
    5       -5.877505   1.000000
    6       -5.877505   1.000000
    7        0.344703   1.000000
    8        1.918371   1.000000
    9        1.918371   1.000000
   10        3.848986   0.000000
   11        6.739382   0.000000
   12        6.989825   0.000000
   13        6.989825   0.000000
   14       10.373717   0.000000
   15       10.553022   0.000000
   16       10.553022   0.000000
 
  0.3333333E+00  0.0000000E+00  0.0000000E+00  0.3703704E-01
    1       -8.780070   1.000000
    2       -6.090225   1.000000
    3       -6.090225   1.000000
    4       -5.873791   1.000000
    5       -5.873791   1.000000
    6       -5.783877   1.000000
    7       -1.499419   1.000000
    8        1.532161   1.000000
    9        1.532161   1.000000
   10        3.916076   0.000000
   11        7.277293   0.000000
   12        7.277293   0.000000
   13        8.236393   0.000000
   14       10.009451   0.000000
   15       10.951765   0.000000
   16       10.951765   0.000000
 
  0.5000000E+00  0.0000000E+00  0.0000000E+00  0.1851852E-01
    1       -8.680269   1.000000
    2       -6.077563   1.000000
    3       -6.077563   1.000000
    4       -5.867725   1.000000
    5       -5.867725   1.000000
    6       -5.534250   1.000000
    7       -2.344972   1.000000
    8        1.364953   1.000000
    9        1.364953   1.000000
   10        3.805993   0.000000
   11        7.243834   0.000000
   12        7.243834   0.000000
   13        9.008274   0.000000
   14       10.588504   0.000000
   15       12.361867   0.000000
   16       12.361867   0.000000
 
  0.1666667E+00  0.1666667E+00  0.0000000E+00  0.2777778E-01
    1       -8.949699   1.000000
    2       -6.103682   1.000000
    3       -6.103682   1.000000
    4       -6.061344   1.000000
    5       -5.884922   1.000000
    6       -5.868528   1.000000
    7        0.333206   1.000000
    8        1.534371   1.000000
    9        1.534371   1.000000
   10        4.512152   0.000000
   11        5.721880   0.000000
   12        7.601017   0.000000
   13        7.601017   0.000000
   14        9.213794   0.000000
   15       11.141368   0.000000
   16       11.721300   0.000000
 
  0.3333333E+00  0.1666667E+00  0.0000000E+00  0.1111111E+00
    1       -8.781653   1.000000
    2       -6.078522   1.000000
    3       -6.066966   1.000000
    4       -5.929822   1.000000
    5       -5.862849   1.000000
    6       -5.807721   1.000000
    7       -1.045261   1.000000
    8        0.999307   1.000000
    9        1.121451   1.000000
   10        4.888080   0.000000
   11        6.061503   0.000000
   12        7.742109   0.000000
   13        8.168330   0.000000
   14        9.912058   0.000000
   15       11.752874   0.000000
   16       11.844014   0.000000
 
  0.5000000E+00  0.1666667E+00  0.0000000E+00  0.1111111E+00
    1       -8.650164   1.000000
    2       -6.063630   1.000000
    3       -6.051195   1.000000
    4       -5.893554   1.000000
    5       -5.864693   1.000000
    6       -5.510118   1.000000
    7       -2.132973   1.000000
    8        0.464075   1.000000
    9        1.039260   1.000000
   10        4.794670   0.000000
   11        6.729430   0.000000
   12        7.993417   0.000000
   13        8.585608   0.000000
   14       10.795259   0.000000
   15       12.002616   0.000000
   16       12.453760   0.000000
 
 -0.3333333E+00  0.1666667E+00  0.0000000E+00  0.1111111E+00
    1       -8.682550   1.000000
    2       -6.065293   1.000000
    3       -6.064788   1.000000
    4       -5.880269   1.000000
    5       -5.879526   1.000000
    6       -5.593778   1.000000
    7       -1.867797   1.000000
    8        0.328691   1.000000
    9        1.340430   1.000000
   10        4.847726   0.000000
   11        6.973318   0.000000
   12        7.687835   0.000000
   13        8.348682   0.000000
   14       10.545021   0.000000
   15       11.155208   0.000000
   16       12.357801   0.000000
 
 -0.1666667E+00  0.1666667E+00  0.0000000E+00  0.5555556E-01
    1       -8.848240   1.000000
    2       -6.101113   1.000000
    3       -6.087000   1.000000
    4       -5.932957   1.000000
    5       -5.886323   1.000000
    6       -5.854503   1.000000
    7       -0.637689   1.000000
    8        0.872623   1.000000
    9        1.796433   1.000000
   10        4.679588   0.000000
   11        6.711363   0.000000
   12        7.219551   0.000000
   13        7.525949   0.000000
   14        9.800276   0.000000
   15       10.992696   0.000000
   16       11.740349   0.000000
 
  0.3333333E+00  0.3333333E+00  0.0000000E+00  0.2777778E-01
    1       -8.683814   1.000000
    2       -6.021410   1.000000
    3       -6.021410   1.000000
    4       -5.970076   1.000000
    5       -5.853216   1.000000
    6       -5.694666   1.000000
    7       -1.397132   1.000000
    8        0.631868   1.000000
    9        0.631868   1.000000
   10        4.749081   0.000000
   11        5.160794   0.000000
   12        9.338054   0.000000
   13        9.538476   0.000000
   14        9.538476   0.000000
   15       12.377988   0.000000
   16       13.927860   0.000000
 
  0.5000000E+00  0.3333333E+00  0.0000000E+00  0.1111111E+00
    1       -8.588486   1.000000
    2       -6.020092   1.000000
    3       -5.999929   1.000000
    4       -5.944392   1.000000
    5       -5.854401   1.000000
    6       -5.445138   1.000000
    7       -2.020577   1.000000
    8       -0.041961   1.000000
    9        0.497694   1.000000
   10        4.838235   0.000000
   11        5.734898   0.000000
   12        8.987380   0.000000
   13        9.738099   0.000000
   14       11.069048   0.000000
   15       12.755653   0.000000
   16       13.491033   0.000000
 
 -0.3333333E+00  0.3333333E+00  0.0000000E+00  0.5555556E-01
    1       -8.588867   1.000000
    2       -6.039953   1.000000
    3       -6.019226   1.000000
    4       -5.905248   1.000000
    5       -5.871939   1.000000
    6       -5.382980   1.000000
    7       -2.057151   1.000000
    8       -0.505456   1.000000
    9        0.810121   1.000000
   10        5.064751   0.000000
   11        7.149349   0.000000
   12        8.893381   0.000000
   13        8.995536   0.000000
   14        9.483280   0.000000
   15       11.071448   0.000000
   16       14.179740   0.000000
 
  0.5000000E+00  0.5000000E+00  0.0000000E+00  0.1388889E-01
    1       -8.556972   1.000000
    2       -5.983877   1.000000
    3       -5.976493   1.000000
    4       -5.976493   1.000000
    5       -5.845527   1.000000
    6       -5.398725   1.000000
    7       -2.226455   1.000000
    8        0.262320   1.000000
    9        0.262320   1.000000
   10        4.592154   0.000000
   11        4.701616   0.000000
   12       10.781934   0.000000
   13       11.128637   0.000000
   14       11.128637   0.000000
   15       12.928301   0.000000
   16       13.595339   0.000000
 
  0.5000000E+00  0.3333333E+00  0.1666667E+00  0.1111111E+00
    1       -8.651583   1.000000
    2       -6.045512   1.000000
    3       -6.037517   1.000000
    4       -5.919324   1.000000
    5       -5.863942   1.000000
    6       -5.570279   1.000000
    7       -1.703828   1.000000
    8        0.041780   1.000000
    9        0.810983   1.000000
   10        5.607959   0.000000
   11        6.153370   0.000000
   12        7.324263   0.000000
   13        9.433348   0.000000
   14       10.225340   0.000000
   15       12.293957   0.000000
   16       13.459333   0.000000
 
 -0.3333333E+00  0.3333333E+00  0.1666667E+00  0.1111111E+00
    1       -8.588863   1.000000
    2       -6.037894   1.000000
    3       -6.022627   1.000000
    4       -5.902229   1.000000
    5       -5.873728   1.000000
    6       -5.382189   1.000000
    7       -2.093749   1.000000
    8       -0.278108   1.000000
    9        0.524649   1.000000
   10        5.741466   0.000000
   11        6.645486   0.000000
   12        7.777981   0.000000
   13        9.298864   0.000000
   14        9.980178   0.000000
   15       12.496358   0.000000
   16       13.253948   0.000000
 
 -0.3333333E+00  0.5000000E+00  0.1666667E+00  0.5555556E-01
    1       -8.558247   1.000000
    2       -6.008742   1.000000
    3       -6.008740   1.000000
    4       -5.926044   1.000000
    5       -5.863750   1.000000
    6       -5.334888   1.000000
    7       -2.138690   1.000000
    8       -0.095962   1.000000
    9       -0.007266   1.000000
   10        5.757855   0.000000
   11        5.793872   0.000000
   12        8.699873   0.000000
   13        8.980490   0.000000
   14       11.573634   0.000000
   15       13.115377   0.000000
   16       13.368539   0.000000
 
  0.0000000E+00  0.0000000E+00  0.5000000E+00  0.0000000E+00
    1       -8.680269   1.000000
    2       -6.077563   1.000000
    3       -6.077563   1.000000
    4       -5.867725   1.000000
    5       -5.867725   1.000000
    6       -5.534250   1.000000
    7       -2.344972   1.000000
    8        1.364953   1.000000
    9        1.364953   1.000000
   10        3.805993   0.000000
   11        7.243834   0.000000
   12        7.243834   0.000000
   13        9.008274   0.000000
   14       10.588504   0.000000
   15       12.361867   0.000000
   16       12.361867   0.000000
 
  0.0000000E+00  0.0000000E+00  0.4970414E+00  0.0000000E+00
    1       -8.680303   1.000000
    2       -6.077567   1.000000
    3       -6.077567   1.000000
    4       -5.867728   1.000000
    5       -5.867728   1.000000
    6       -5.534360   1.000000
    7       -2.344669   1.000000
    8        1.365008   1.000000
    9        1.365008   1.000000
   10        3.806034   0.000000
   11        7.243858   0.000000
   12        7.243858   0.000000
   13        9.008156   0.000000
   14       10.587794   0.000000
   15       12.360550   0.000000
   16       12.360550   0.000000
 
  0.0000000E+00  0.0000000E+00  0.4940828E+00  0.0000000E+00
    1       -8.680405   1.000000
    2       -6.077579   1.000000
    3       -6.077579   1.000000
    4       -5.867736   1.000000
    5       -5.867736   1.000000
    6       -5.534690   1.000000
    7       -2.343759   1.000000
    8        1.365174   1.000000
    9        1.365174   1.000000
   10        3.806155   0.000000
   11        7.243933   0.000000
   12        7.243933   0.000000
   13        9.007801   0.000000
   14       10.585673   0.000000
   15       12.356621   0.000000
   16       12.356621   0.000000
 
  0.0000000E+00  0.0000000E+00  0.4911243E+00  0.0000000E+00
    1       -8.680575   1.000000
    2       -6.077598   1.000000
    3       -6.077598   1.000000
    4       -5.867749   1.000000
    5       -5.867749   1.000000
    6       -5.535240   1.000000
    7       -2.342242   1.000000
    8        1.365451   1.000000
    9        1.365451   1.000000
   10        3.806357   0.000000
   11        7.244057   0.000000
   12        7.244057   0.000000
   13        9.007208   0.000000
   14       10.582154   0.000000
   15       12.350134   0.000000
   16       12.350134   0.000000
 
  0.0000000E+00  0.0000000E+00  0.4881657E+00  0.0000000E+00
    1       -8.680813   1.000000
    2       -6.077625   1.000000
    3       -6.077625   1.000000
    4       -5.867768   1.000000
    5       -5.867768   1.000000
    6       -5.536009   1.000000
    7       -2.340119   1.000000
    8        1.365840   1.000000
    9        1.365840   1.000000
   10        3.806640   0.000000
   11        7.244231   0.000000
   12        7.244231   0.000000
   13        9.006373   0.000000
   14       10.577261   0.000000
   15       12.341176   0.000000
   16       12.341177   0.000000
 
  0.0000000E+00  0.0000000E+00  0.4852071E+00  0.0000000E+00
    1       -8.681118   1.000000
    2       -6.077661   1.000000
    3       -6.077660   1.000000
    4       -5.867792   1.000000
    5       -5.867792   1.000000
    6       -5.536995   1.000000
    7       -2.337392   1.000000
    8        1.366339   1.000000
    9        1.366339   1.000000
   10        3.807003   0.000000
   11        7.244453   0.000000
   12        7.244453   0.000000
   13        9.005289   0.000000
   14       10.571026   0.000000
   15       12.329865   0.000000
   16       12.329865   0.000000
 
  0.0000000E+00  0.0000000E+00  0.4822485E+00  0.0000000E+00
    1       -8.681493   1.000000
    2       -6.077703   1.000000
    3       -6.077703   1.000000
    4       -5.867821   1.000000
    5       -5.867821   1.000000
    6       -5.538197   1.000000
    7       -2.334063   1.000000
    8        1.366949   1.000000
    9        1.366949   1.000000
   10        3.807447   0.000000
   11        7.244725   0.000000
   12        7.244725   0.000000
   13        9.003952   0.000000
   14       10.563490   0.000000
   15       12.316335   0.000000
   16       12.316335   0.000000
 
  0.0000000E+00  0.0000000E+00  0.4792900E+00  0.0000000E+00
    1       -8.681938   1.000000
    2       -6.077753   1.000000
    3       -6.077753   1.000000
    4       -5.867855   1.000000
    5       -5.867855   1.000000
    6       -5.539613   1.000000
    7       -2.330134   1.000000
    8        1.367669   1.000000
    9        1.367669   1.000000
   10        3.807972   0.000000
   11        7.245044   0.000000
   12        7.245044   0.000000
   13        9.002352   0.000000
   14       10.554703   0.000000
   15       12.300740   0.000000
   16       12.300741   0.000000
 
  0.0000000E+00  0.0000000E+00  0.4763313E+00  0.0000000E+00
    1       -8.682449   1.000000
    2       -6.077811   1.000000
    3       -6.077811   1.000000
    4       -5.867894   1.000000
    5       -5.867894   1.000000
    6       -5.541241   1.000000
    7       -2.325607   1.000000
    8        1.368500   1.000000
    9        1.368500   1.000000
   10        3.808577   0.000000
   11        7.245411   0.000000
   12        7.245411   0.000000
   13        9.000480   0.000000
   14       10.544719   0.000000
   15       12.283241   0.000000
   16       12.283241   0.000000
 
  0.0000000E+00  0.0000000E+00  0.4733728E+00  0.0000000E+00
    1       -8.683028   1.000000
    2       -6.077877   1.000000
    3       -6.077877   1.000000
    4       -5.867938   1.000000
    5       -5.867938   1.000000
    6       -5.543079   1.000000
    7       -2.320485   1.000000
    8        1.369442   1.000000
    9        1.369442   1.000000
   10        3.809262   0.000000
   11        7.245824   0.000000
   12        7.245824   0.000000
   13        8.998324   0.000000
   14       10.533601   0.000000
   15       12.264002   0.000000
   16       12.264003   0.000000
 
  0.0000000E+00  0.0000000E+00  0.4704142E+00  0.0000000E+00
    1       -8.683674   1.000000
    2       -6.077951   1.000000
    3       -6.077951   1.000000
    4       -5.867987   1.000000
    5       -5.867987   1.000000
    6       -5.545123   1.000000
    7       -2.314770   1.000000
    8        1.370494   1.000000
    9        1.370494   1.000000
   10        3.810026   0.000000
   11        7.246283   0.000000
   12        7.246283   0.000000
   13        8.995872   0.000000
   14       10.521416   0.000000
   15       12.243187   0.000000
   16       12.243187   0.000000
 
  0.0000000E+00  0.0000000E+00  0.4674556E+00  0.0000000E+00
    1       -8.684387   1.000000
    2       -6.078033   1.000000
    3       -6.078033   1.000000
    4       -5.868041   1.000000
    5       -5.868041   1.000000
    6       -5.547372   1.000000
    7       -2.308466   1.000000
    8        1.371655   1.000000
    9        1.371656   1.000000
   10        3.810869   0.000000
   11        7.246786   0.000000
   12        7.246786   0.000000
   13        8.993108   0.000000
   14       10.508237   0.000000
   15       12.220953   0.000000
   16       12.220953   0.000000
 
  0.0000000E+00  0.0000000E+00  0.4644970E+00  0.0000000E+00
    1       -8.685167   1.000000
    2       -6.078122   1.000000
    3       -6.078122   1.000000
    4       -5.868100   1.000000
    5       -5.868100   1.000000
    6       -5.549821   1.000000
    7       -2.301577   1.000000
    8        1.372927   1.000000
    9        1.372927   1.000000
   10        3.811791   0.000000
   11        7.247333   0.000000
   12        7.247333   0.000000
   13        8.990017   0.000000
   14       10.494140   0.000000
   15       12.197451   0.000000
   16       12.197451   0.000000
 
  0.0000000E+00  0.0000000E+00  0.4615385E+00  0.0000000E+00
    1       -8.686013   1.000000
    2       -6.078219   1.000000
    3       -6.078219   1.000000
    4       -5.868164   1.000000
    5       -5.868164   1.000000
    6       -5.552467   1.000000
    7       -2.294107   1.000000
    8        1.374308   1.000000
    9        1.374308   1.000000
   10        3.812791   0.000000
   11        7.247922   0.000000
   12        7.247922   0.000000
   13        8.986581   0.000000
   14       10.479205   0.000000
   15       12.172823   0.000000
   16       12.172823   0.000000
 
  0.0000000E+00  0.0000000E+00  0.4585799E+00  0.0000000E+00
    1       -8.686926   1.000000
    2       -6.078325   1.000000
    3       -6.078325   1.000000
    4       -5.868233   1.000000
    5       -5.868233   1.000000
    6       -5.555306   1.000000
    7       -2.286060   1.000000
    8        1.375799   1.000000
    9        1.375799   1.000000
   10        3.813869   0.000000
   11        7.248552   0.000000
   12        7.248552   0.000000
   13        8.982782   0.000000
   14       10.463514   0.000000
   15       12.147200   0.000000
   16       12.147200   0.000000
 
  0.0000000E+00  0.0000000E+00  0.4556213E+00  0.0000000E+00
    1       -8.687904   1.000000
    2       -6.078438   1.000000
    3       -6.078438   1.000000
    4       -5.868306   1.000000
    5       -5.868306   1.000000
    6       -5.558335   1.000000
    7       -2.277441   1.000000
    8        1.377398   1.000000
    9        1.377398   1.000000
   10        3.815025   0.000000
   11        7.249222   0.000000
   12        7.249222   0.000000
   13        8.978598   0.000000
   14       10.447152   0.000000
   15       12.120705   0.000000
   16       12.120705   0.000000
 
  0.0000000E+00  0.0000000E+00  0.4526627E+00  0.0000000E+00
    1       -8.688948   1.000000
    2       -6.078559   1.000000
    3       -6.078559   1.000000
    4       -5.868384   1.000000
    5       -5.868384   1.000000
    6       -5.561548   1.000000
    7       -2.268254   1.000000
    8        1.379106   1.000000
    9        1.379106   1.000000
   10        3.816257   0.000000
   11        7.249929   0.000000
   12        7.249929   0.000000
   13        8.974008   0.000000
   14       10.430204   0.000000
   15       12.093447   0.000000
   16       12.093447   0.000000
 
  0.0000000E+00  0.0000000E+00  0.4497041E+00  0.0000000E+00
    1       -8.690058   1.000000
    2       -6.078688   1.000000
    3       -6.078688   1.000000
    4       -5.868467   1.000000
    5       -5.868467   1.000000
    6       -5.564941   1.000000
    7       -2.258506   1.000000
    8        1.380923   1.000000
    9        1.380923   1.000000
   10        3.817565   0.000000
   11        7.250672   0.000000
   12        7.250672   0.000000
   13        8.968987   0.000000
   14       10.412757   0.000000
   15       12.065529   0.000000
   16       12.065529   0.000000
 
  0.0000000E+00  0.0000000E+00  0.4467456E+00  0.0000000E+00
    1       -8.691235   1.000000
    2       -6.078826   1.000000
    3       -6.078826   1.000000
    4       -5.868555   1.000000
    5       -5.868555   1.000000
    6       -5.568510   1.000000
    7       -2.248202   1.000000
    8        1.382847   1.000000
    9        1.382847   1.000000
   10        3.818948   0.000000
   11        7.251446   0.000000
   12        7.251446   0.000000
   13        8.963510   0.000000
   14       10.394896   0.000000
   15       12.037035   0.000000
   16       12.037035   0.000000
 
  0.0000000E+00  0.0000000E+00  0.4437870E+00  0.0000000E+00
    1       -8.692474   1.000000
    2       -6.078971   1.000000
    3       -6.078971   1.000000
    4       -5.868646   1.000000
    5       -5.868646   1.000000
    6       -5.572250   1.000000
    7       -2.237345   1.000000
    8        1.384878   1.000000
    9        1.384878   1.000000
   10        3.820407   0.000000
   11        7.252258   0.000000
   12        7.252258   0.000000
   13        8.957555   0.000000
   14       10.376710   0.000000
   15       12.008063   0.000000
   16       12.008063   0.000000
 
  0.0000000E+00  0.0000000E+00  0.4408284E+00  0.0000000E+00
    1       -8.693778   1.000000
    2       -6.079124   1.000000
    3       -6.079124   1.000000
    4       -5.868742   1.000000
    5       -5.868742   1.000000
    6       -5.576156   1.000000
    7       -2.225943   1.000000
    8        1.387017   1.000000
    9        1.387017   1.000000
   10        3.821939   0.000000
   11        7.253098   0.000000
   12        7.253098   0.000000
   13        8.951091   0.000000
   14       10.358285   0.000000
   15       11.978681   0.000000
   16       11.978681   0.000000
 
  0.0000000E+00  0.0000000E+00  0.4378698E+00  0.0000000E+00
    1       -8.695146   1.000000
    2       -6.079285   1.000000
    3       -6.079285   1.000000
    4       -5.868842   1.000000
    5       -5.868842   1.000000
    6       -5.580224   1.000000
    7       -2.214002   1.000000
    8        1.389263   1.000000
    9        1.389263   1.000000
   10        3.823545   0.000000
   11        7.253967   0.000000
   12        7.253967   0.000000
   13        8.944092   0.000000
   14       10.339704   0.000000
   15       11.948956   0.000000
   16       11.948956   0.000000
 
  0.0000000E+00  0.0000000E+00  0.4349113E+00  0.0000000E+00
    1       -8.696578   1.000000
    2       -6.079454   1.000000
    3       -6.079454   1.000000
    4       -5.868945   1.000000
    5       -5.868945   1.000000
    6       -5.584446   1.000000
    7       -2.201528   1.000000
    8        1.391614   1.000000
    9        1.391614   1.000000
   10        3.825223   0.000000
   11        7.254862   0.000000
   12        7.254862   0.000000
   13        8.936528   0.000000
   14       10.321053   0.000000
   15       11.918951   0.000000
   16       11.918951   0.000000
 
  0.0000000E+00  0.0000000E+00  0.4319527E+00  0.0000000E+00
    1       -8.698072   1.000000
    2       -6.079632   1.000000
    3       -6.079632   1.000000
    4       -5.869052   1.000000
    5       -5.869052   1.000000
    6       -5.588819   1.000000
    7       -2.188527   1.000000
    8        1.394071   1.000000
    9        1.394071   1.000000
   10        3.826972   0.000000
   11        7.255780   0.000000
   12        7.255780   0.000000
   13        8.928371   0.000000
   14       10.302412   0.000000
   15       11.888721   0.000000
   16       11.888721   0.000000
 
  0.0000000E+00  0.0000000E+00  0.4289941E+00  0.0000000E+00
    1       -8.699630   1.000000
    2       -6.079817   1.000000
    3       -6.079817   1.000000
    4       -5.869163   1.000000
    5       -5.869163   1.000000
    6       -5.593337   1.000000
    7       -2.175005   1.000000
    8        1.396634   1.000000
    9        1.396634   1.000000
   10        3.828793   0.000000
   11        7.256720   0.000000
   12        7.256720   0.000000
   13        8.919593   0.000000
   14       10.283863   0.000000
   15       11.858318   0.000000
   16       11.858318   0.000000
 
  0.0000000E+00  0.0000000E+00  0.4260355E+00  0.0000000E+00
    1       -8.701250   1.000000
    2       -6.080011   1.000000
    3       -6.080011   1.000000
    4       -5.869278   1.000000
    5       -5.869278   1.000000
    6       -5.597994   1.000000
    7       -2.160969   1.000000
    8        1.399301   1.000000
    9        1.399301   1.000000
   10        3.830682   0.000000
   11        7.257678   0.000000
   12        7.257678   0.000000
   13        8.910165   0.000000
   14       10.265483   0.000000
   15       11.827787   0.000000
   16       11.827787   0.000000
 
  0.0000000E+00  0.0000000E+00  0.4230769E+00  0.0000000E+00
    1       -8.702932   1.000000
    2       -6.080213   1.000000
    3       -6.080213   1.000000
    4       -5.869396   1.000000
    5       -5.869396   1.000000
    6       -5.602787   1.000000
    7       -2.146425   1.000000
    8        1.402073   1.000000
    9        1.402073   1.000000
   10        3.832640   0.000000
   11        7.258652   0.000000
   12        7.258652   0.000000
   13        8.900057   0.000000
   14       10.247347   0.000000
   15       11.797170   0.000000
   16       11.797170   0.000000
 
  0.0000000E+00  0.0000000E+00  0.4201183E+00  0.0000000E+00
    1       -8.704674   1.000000
    2       -6.080423   1.000000
    3       -6.080423   1.000000
    4       -5.869517   1.000000
    5       -5.869517   1.000000
    6       -5.607707   1.000000
    7       -2.131381   1.000000
    8        1.404949   1.000000
    9        1.404949   1.000000
   10        3.834666   0.000000
   11        7.259640   0.000000
   12        7.259640   0.000000
   13        8.889245   0.000000
   14       10.229525   0.000000
   15       11.766506   0.000000
   16       11.766506   0.000000
 
  0.0000000E+00  0.0000000E+00  0.4171598E+00  0.0000000E+00
    1       -8.706479   1.000000
    2       -6.080641   1.000000
    3       -6.080641   1.000000
    4       -5.869641   1.000000
    5       -5.869641   1.000000
    6       -5.612748   1.000000
    7       -2.115844   1.000000
    8        1.407929   1.000000
    9        1.407929   1.000000
   10        3.836758   0.000000
   11        7.260637   0.000000
   12        7.260637   0.000000
   13        8.877702   0.000000
   14       10.212088   0.000000
   15       11.735829   0.000000
   16       11.735829   0.000000
 
  0.0000000E+00  0.0000000E+00  0.4142012E+00  0.0000000E+00
    1       -8.708344   1.000000
    2       -6.080867   1.000000
    3       -6.080867   1.000000
    4       -5.869768   1.000000
    5       -5.869768   1.000000
    6       -5.617906   1.000000
    7       -2.099820   1.000000
    8        1.411011   1.000000
    9        1.411011   1.000000
   10        3.838915   0.000000
   11        7.261643   0.000000
   12        7.261643   0.000000
   13        8.865403   0.000000
   14       10.195099   0.000000
   15       11.705173   0.000000
   16       11.705173   0.000000
 
  0.0000000E+00  0.0000000E+00  0.4112426E+00  0.0000000E+00
    1       -8.710270   1.000000
    2       -6.081102   1.000000
    3       -6.081102   1.000000
    4       -5.869898   1.000000
    5       -5.869898   1.000000
    6       -5.623175   1.000000
    7       -2.083316   1.000000
    8        1.414195   1.000000
    9        1.414195   1.000000
   10        3.841136   0.000000
   11        7.262651   0.000000
   12        7.262651   0.000000
   13        8.852327   0.000000
   14       10.178617   0.000000
   15       11.674565   0.000000
   16       11.674565   0.000000
 
  0.0000000E+00  0.0000000E+00  0.4082840E+00  0.0000000E+00
    1       -8.712255   1.000000
    2       -6.081345   1.000000
    3       -6.081345   1.000000
    4       -5.870031   1.000000
    5       -5.870031   1.000000
    6       -5.628551   1.000000
    7       -2.066340   1.000000
    8        1.417481   1.000000
    9        1.417481   1.000000
   10        3.843419   0.000000
   11        7.263661   0.000000
   12        7.263661   0.000000
   13        8.838454   0.000000
   14       10.162698   0.000000
   15       11.644033   0.000000
   16       11.644033   0.000000
 
  0.0000000E+00  0.0000000E+00  0.4053254E+00  0.0000000E+00
    1       -8.714298   1.000000
    2       -6.081596   1.000000
    3       -6.081596   1.000000
    4       -5.870167   1.000000
    5       -5.870167   1.000000
    6       -5.634026   1.000000
    7       -2.048897   1.000000
    8        1.420868   1.000000
    9        1.420868   1.000000
   10        3.845763   0.000000
   11        7.264668   0.000000
   12        7.264668   0.000000
   13        8.823768   0.000000
   14       10.147393   0.000000
   15       11.613604   0.000000
   16       11.613604   0.000000
 
  0.0000000E+00  0.0000000E+00  0.4023669E+00  0.0000000E+00
    1       -8.716399   1.000000
    2       -6.081855   1.000000
    3       -6.081855   1.000000
    4       -5.870305   1.000000
    5       -5.870305   1.000000
    6       -5.639596   1.000000
    7       -2.030995   1.000000
    8        1.424355   1.000000
    9        1.424355   1.000000
   10        3.848166   0.000000
   11        7.265668   0.000000
   12        7.265668   0.000000
   13        8.808256   0.000000
   14       10.132747   0.000000
   15       11.583300   0.000000
   16       11.583300   0.000000
 
  0.0000000E+00  0.0000000E+00  0.3994083E+00  0.0000000E+00
    1       -8.718560   1.000000
    2       -6.082124   1.000000
    3       -6.082124   1.000000
    4       -5.870446   1.000000
    5       -5.870446   1.000000