       N       E                     dE             d eps       ncg     rms          rms(c)
DAV:   1     0.995260933981E+02    0.99526E+02   -0.82096E+03 22256   0.945E+02
DAV:   2    -0.234099598808E+01   -0.10187E+03   -0.97235E+02 26936   0.237E+02
DAV:   3    -0.598868764165E+01   -0.36477E+01   -0.36433E+01 25528   0.464E+01
DAV:   4    -0.602027544101E+01   -0.31588E-01   -0.31586E-01 31720   0.393E+00
DAV:   5    -0.602034119872E+01   -0.65758E-04   -0.65757E-04 25976   0.173E-01
DAV:   6    -0.602034240373E+01   -0.12050E-05   -0.12050E-05 31536   0.172E-02
DAV:   7    -0.602034241769E+01   -0.13957E-07   -0.14000E-07 20832   0.144E-03
   1 F= -.60203424E+01 E0= -.60203424E+01  d E =-.602034E+01
