   2   2   1   0
  0.2002393E+02  0.3840297E-09  0.3840297E-09  0.3840297E-09  0.5000000E-15
  1.000000000000000E-004
  CAR 
 Name                                    
     16.96244189     -7.29693890  301      5.89409941      1.00000000
     -7.297  0.0000E+00  0.0000E+00
     -7.216  0.0000E+00  0.0000E+00
     -7.135  0.0000E+00  0.0000E+00
     -7.054  0.0000E+00  0.0000E+00
     -6.973  0.0000E+00  0.0000E+00
     -6.893  0.0000E+00  0.0000E+00
     -6.812  0.0000E+00  0.0000E+00
     -6.731  0.0000E+00  0.0000E+00
     -6.650  0.0000E+00  0.0000E+00
     -6.569  0.0000E+00  0.0000E+00
     -6.488  0.0000E+00  0.0000E+00
     -6.407  0.0000E+00  0.0000E+00
     -6.327  0.0000E+00  0.0000E+00
     -6.246  0.2062E-13  0.1668E-14
     -6.165  0.1212E+00  0.9804E-02
     -6.084  0.0000E+00  0.9804E-02
     -6.003  0.0000E+00  0.9804E-02
     -5.922  0.0000E+00  0.9804E-02
     -5.841  0.8072E-01  0.1633E-01
     -5.761  0.8892E+00  0.8824E-01
     -5.680  0.7274E+00  0.1471E+00
     -5.599  0.0000E+00  0.1471E+00
     -5.518  0.0000E+00  0.1471E+00
     -5.437  0.0000E+00  0.1471E+00
     -5.356  0.0000E+00  0.1471E+00
     -5.275  0.7007E-06  0.1471E+00
     -5.194  0.1455E+01  0.2647E+00
     -5.114  0.0000E+00  0.2647E+00
     -5.033  0.0000E+00  0.2647E+00
     -4.952  0.0000E+00  0.2647E+00
     -4.871  0.2895E+01  0.4988E+00
     -4.790  0.9678E+00  0.5783E+00
     -4.709  0.0000E+00  0.5784E+00
     -4.628  0.0000E+00  0.5784E+00
     -4.548  0.0000E+00  0.5784E+00
     -4.467  0.0000E+00  0.5784E+00
     -4.386  0.0000E+00  0.5784E+00
     -4.305  0.5295E-03  0.5785E+00
     -4.224  0.7269E+00  0.6373E+00
     -4.143  0.0000E+00  0.6373E+00
     -4.062  0.2840E+01  0.8669E+00
     -3.981  0.0000E+00  0.8725E+00
     -3.901  0.4762E+00  0.9111E+00
     -3.820  0.2918E+01  0.1147E+01
     -3.739  0.2831E-12  0.1147E+01
     -3.658  0.2910E+01  0.1382E+01
     -3.577  0.0000E+00  0.1382E+01
     -3.496  0.0000E+00  0.1382E+01
     -3.415  0.0000E+00  0.1382E+01
     -3.335  0.0000E+00  0.1382E+01
     -3.254  0.0000E+00  0.1382E+01
     -3.173  0.0000E+00  0.1382E+01
     -3.092  0.2902E+01  0.1617E+01
     -3.011  0.0000E+00  0.1618E+01
     -2.930  0.2643E-02  0.1618E+01
     -2.849  0.4362E+01  0.1971E+01
     -2.769  0.0000E+00  0.1971E+01
     -2.688  0.0000E+00  0.1971E+01
     -2.607  0.0000E+00  0.1971E+01
     -2.526  0.0000E+00  0.1971E+01
     -2.445  0.0000E+00  0.1971E+01
     -2.364  0.0000E+00  0.1971E+01
     -2.283  0.0000E+00  0.1971E+01
     -2.202  0.0000E+00  0.1971E+01
     -2.122  0.0000E+00  0.1971E+01
     -2.041  0.1018E+00  0.1979E+01
     -1.960  0.6257E+00  0.2029E+01
     -1.879  0.0000E+00  0.2029E+01
     -1.798  0.0000E+00  0.2029E+01
     -1.717  0.0000E+00  0.2029E+01
     -1.636  0.0000E+00  0.2029E+01
     -1.556  0.0000E+00  0.2029E+01
     -1.475  0.0000E+00  0.2029E+01
     -1.394  0.0000E+00  0.2029E+01
     -1.313  0.0000E+00  0.2029E+01
     -1.232  0.2008E-01  0.2031E+01
     -1.151  0.4649E+00  0.2069E+01
     -1.070  0.5959E+00  0.2117E+01
     -0.989  0.2829E+01  0.2346E+01
     -0.909  0.9398E+00  0.2422E+01
     -0.828  0.2874E+01  0.2654E+01
     -0.747  0.2910E+01  0.2892E+01
     -0.666  0.0000E+00  0.2892E+01
     -0.585  0.0000E+00  0.2892E+01
     -0.504  0.0000E+00  0.2892E+01
     -0.423  0.0000E+00  0.2892E+01
     -0.343  0.0000E+00  0.2892E+01
     -0.262  0.1461E-02  0.2892E+01
     -0.181  0.2908E+01  0.3127E+01
     -0.100  0.0000E+00  0.3127E+01
     -0.019  0.0000E+00  0.3127E+01
      0.062  0.0000E+00  0.3127E+01
      0.143  0.1105E+01  0.3217E+01
      0.223  0.1805E+01  0.3363E+01
      0.304  0.0000E+00  0.3363E+01
      0.385  0.1722E-09  0.3363E+01
      0.466  0.9699E+00  0.3441E+01
      0.547  0.0000E+00  0.3441E+01
      0.628  0.0000E+00  0.3441E+01
      0.709  0.0000E+00  0.3441E+01
      0.790  0.6259E+00  0.3492E+01
      0.870  0.0000E+00  0.3500E+01
      0.951  0.0000E+00  0.3500E+01
      1.032  0.0000E+00  0.3500E+01
      1.113  0.0000E+00  0.3500E+01
      1.194  0.0000E+00  0.3500E+01
      1.275  0.2577E-09  0.3500E+01
      1.356  0.4248E+01  0.3844E+01
      1.436  0.0000E+00  0.3853E+01
      1.517  0.0000E+00  0.3853E+01
      1.598  0.0000E+00  0.3853E+01
      1.679  0.2423E-13  0.3853E+01
      1.760  0.2909E+01  0.4088E+01
      1.841  0.0000E+00  0.4088E+01
      1.922  0.0000E+00  0.4088E+01
      2.002  0.0000E+00  0.4088E+01
      2.083  0.1441E+01  0.4205E+01
      2.164  0.3033E+01  0.4451E+01
      2.245  0.2787E+01  0.4676E+01
      2.326  0.0000E+00  0.4676E+01
      2.407  0.0000E+00  0.4676E+01
      2.488  0.0000E+00  0.4676E+01
      2.569  0.0000E+00  0.4676E+01
      2.649  0.0000E+00  0.4676E+01
      2.730  0.2899E+01  0.4911E+01
      2.811  0.0000E+00  0.4912E+01
      2.892  0.1437E-04  0.4912E+01
      2.973  0.7859E+00  0.4975E+01
      3.054  0.5761E+01  0.5441E+01
      3.135  0.0000E+00  0.5441E+01
      3.215  0.6183E+00  0.5491E+01
      3.296  0.2291E+01  0.5676E+01
      3.377  0.2909E+01  0.5912E+01
      3.458  0.1060E+01  0.5998E+01
      3.539  0.2817E+01  0.6225E+01
      3.620  0.1061E-10  0.6225E+01
      3.701  0.1455E+01  0.6343E+01
      3.782  0.2685E+01  0.6560E+01
      3.862  0.0000E+00  0.6637E+01
      3.943  0.0000E+00  0.6637E+01
      4.024  0.3168E+01  0.6893E+01
      4.105  0.2636E+01  0.7108E+01
      4.186  0.0000E+00  0.7108E+01
      4.267  0.0000E+00  0.7108E+01
      4.348  0.0000E+00  0.7108E+01
      4.428  0.0000E+00  0.7108E+01
      4.509  0.2896E+01  0.7342E+01
      4.590  0.1212E+01  0.7441E+01
      4.671  0.6293E+00  0.7539E+01
      4.752  0.4750E-07  0.7539E+01
      4.833  0.1940E+01  0.7696E+01
      4.914  0.0000E+00  0.7696E+01
      4.994  0.0000E+00  0.7696E+01
      5.075  0.0000E+00  0.7696E+01
      5.156  0.0000E+00  0.7696E+01
      5.237  0.1179E+01  0.7791E+01
      5.318  0.8103E-03  0.7814E+01
      5.399  0.1939E+01  0.7971E+01
      5.480  0.0000E+00  0.7971E+01
      5.561  0.0000E+00  0.7971E+01
      5.641  0.0000E+00  0.7971E+01
      5.722  0.0000E+00  0.7971E+01
      5.803  0.2910E+00  0.7994E+01
      5.884  0.0000E+00  0.8000E+01
      5.965  0.0000E+00  0.8000E+01
      6.046  0.0000E+00  0.8000E+01
      6.127  0.0000E+00  0.8000E+01
      6.207  0.0000E+00  0.8000E+01
      6.288  0.0000E+00  0.8000E+01
      6.369  0.2699E-01  0.8002E+01
      6.450  0.1428E+01  0.8118E+01
      6.531  0.0000E+00  0.8118E+01
      6.612  0.0000E+00  0.8118E+01
      6.693  0.4101E-11  0.8118E+01
      6.774  0.2910E+01  0.8353E+01
      6.854  0.0000E+00  0.8353E+01
      6.935  0.0000E+00  0.8353E+01
      7.016  0.0000E+00  0.8353E+01
      7.097  0.0000E+00  0.8353E+01
      7.178  0.0000E+00  0.8353E+01
      7.259  0.1396E+01  0.8466E+01
      7.340  0.2765E+00  0.8510E+01
      7.420  0.4884E+00  0.8549E+01
      7.501  0.9510E+00  0.8646E+01
      7.582  0.0000E+00  0.8647E+01
      7.663  0.5023E+00  0.8688E+01
      7.744  0.4575E+01  0.9058E+01
      7.825  0.0000E+00  0.9176E+01
      7.906  0.0000E+00  0.9176E+01
      7.986  0.0000E+00  0.9176E+01
      8.067  0.8787E-02  0.9177E+01
      8.148  0.9703E+00  0.9256E+01
      8.229  0.2901E+01  0.9490E+01
      8.310  0.1729E+00  0.9504E+01
      8.391  0.1130E-02  0.9520E+01
      8.472  0.2909E+01  0.9755E+01
      8.553  0.2862E-01  0.9757E+01
      8.633  0.2881E+01  0.9990E+01
      8.714  0.0000E+00  0.9990E+01
      8.795  0.1388E+01  0.1010E+02
      8.876  0.0000E+00  0.1011E+02
      8.957  0.4484E+00  0.1014E+02
      9.038  0.1547E+01  0.1027E+02
      9.119  0.3878E+01  0.1058E+02
      9.199  0.6683E-01  0.1059E+02
      9.280  0.2902E+01  0.1082E+02
      9.361  0.3402E+01  0.1110E+02
      9.442  0.2910E+01  0.1133E+02
      9.523  0.2197E-13  0.1133E+02
      9.604  0.1455E+01  0.1145E+02
      9.685  0.0000E+00  0.1145E+02
      9.765  0.7122E-02  0.1145E+02
      9.846  0.6498E+01  0.1198E+02
      9.927  0.7472E-07  0.1216E+02
     10.008  0.5860E+01  0.1263E+02
     10.089  0.6988E+00  0.1269E+02
     10.170  0.1442E+01  0.1280E+02
     10.251  0.1743E+01  0.1294E+02
     10.332  0.3016E-03  0.1304E+02
     10.412  0.2909E+01  0.1327E+02
     10.493  0.0000E+00  0.1327E+02
     10.574  0.0000E+00  0.1327E+02
     10.655  0.0000E+00  0.1327E+02
     10.736  0.0000E+00  0.1327E+02
     10.817  0.2529E+00  0.1329E+02
     10.898  0.2657E+01  0.1351E+02
     10.978  0.0000E+00  0.1351E+02
     11.059  0.0000E+00  0.1351E+02
     11.140  0.0000E+00  0.1351E+02
     11.221  0.9683E+00  0.1359E+02
     11.302  0.0000E+00  0.1359E+02
     11.383  0.1271E+01  0.1369E+02
     11.464  0.2444E-07  0.1371E+02
     11.545  0.1455E+01  0.1382E+02
     11.625  0.0000E+00  0.1382E+02
     11.706  0.0000E+00  0.1382E+02
     11.787  0.4279E-03  0.1382E+02
     11.868  0.2909E+01  0.1406E+02
     11.949  0.0000E+00  0.1406E+02
     12.030  0.0000E+00  0.1406E+02
     12.111  0.3805E-03  0.1406E+02
     12.191  0.2909E+01  0.1429E+02
     12.272  0.4361E+01  0.1465E+02
     12.353  0.0000E+00  0.1465E+02
     12.434  0.0000E+00  0.1465E+02
     12.515  0.0000E+00  0.1465E+02
     12.596  0.0000E+00  0.1465E+02
     12.677  0.0000E+00  0.1465E+02
     12.757  0.1615E-15  0.1465E+02
     12.838  0.4359E+01  0.1500E+02
     12.919  0.0000E+00  0.1500E+02
     13.000  0.2038E-02  0.1500E+02
     13.081  0.4363E+01  0.1535E+02
     13.162  0.1069E-05  0.1535E+02
     13.243  0.5809E+01  0.1582E+02
     13.324  0.4826E+00  0.1586E+02
     13.404  0.0000E+00  0.1586E+02
     13.485  0.7896E-02  0.1586E+02
     13.566  0.9620E+00  0.1594E+02
     13.647  0.0000E+00  0.1594E+02
     13.728  0.0000E+00  0.1594E+02
     13.809  0.0000E+00  0.1594E+02
     13.890  0.0000E+00  0.1594E+02
     13.970  0.0000E+00  0.1594E+02
     14.051  0.0000E+00  0.1594E+02
     14.132  0.0000E+00  0.1594E+02
     14.213  0.0000E+00  0.1594E+02
     14.294  0.0000E+00  0.1594E+02
     14.375  0.0000E+00  0.1594E+02
     14.456  0.0000E+00  0.1594E+02
     14.537  0.0000E+00  0.1594E+02
     14.617  0.0000E+00  0.1594E+02
     14.698  0.0000E+00  0.1594E+02
     14.779  0.0000E+00  0.1594E+02
     14.860  0.0000E+00  0.1594E+02
     14.941  0.0000E+00  0.1594E+02
     15.022  0.0000E+00  0.1594E+02
     15.103  0.0000E+00  0.1594E+02
     15.183  0.0000E+00  0.1594E+02
     15.264  0.0000E+00  0.1594E+02
     15.345  0.0000E+00  0.1594E+02
     15.426  0.0000E+00  0.1594E+02
     15.507  0.0000E+00  0.1594E+02
     15.588  0.0000E+00  0.1594E+02
     15.669  0.0000E+00  0.1594E+02
     15.749  0.0000E+00  0.1594E+02
     15.830  0.2088E-04  0.1594E+02
     15.911  0.7274E+00  0.1600E+02
     15.992  0.0000E+00  0.1600E+02
     16.073  0.0000E+00  0.1600E+02
     16.154  0.0000E+00  0.1600E+02
     16.235  0.0000E+00  0.1600E+02
     16.316  0.0000E+00  0.1600E+02
     16.396  0.0000E+00  0.1600E+02
     16.477  0.0000E+00  0.1600E+02
     16.558  0.0000E+00  0.1600E+02
     16.639  0.0000E+00  0.1600E+02
     16.720  0.0000E+00  0.1600E+02
     16.801  0.0000E+00  0.1600E+02
     16.882  0.0000E+00  0.1600E+02
     16.962  0.0000E+00  0.1600E+02
     16.96244189     -7.29693890  301      5.89409941      1.00000000
     -7.297  0.0000E+00  0.0000E+00  0.0000E+00
     -7.216  0.0000E+00  0.0000E+00  0.0000E+00
     -7.135  0.0000E+00  0.0000E+00  0.0000E+00
     -7.054  0.0000E+00  0.0000E+00  0.0000E+00
     -6.973  0.0000E+00  0.0000E+00  0.0000E+00
     -6.893  0.0000E+00  0.0000E+00  0.0000E+00
     -6.812  0.0000E+00  0.0000E+00  0.0000E+00
     -6.731  0.0000E+00  0.0000E+00  0.0000E+00
     -6.650  0.0000E+00  0.0000E+00  0.0000E+00
     -6.569  0.0000E+00  0.0000E+00  0.0000E+00
     -6.488  0.0000E+00  0.0000E+00  0.0000E+00
     -6.407  0.0000E+00  0.0000E+00  0.0000E+00
     -6.327  0.0000E+00  0.0000E+00  0.0000E+00
     -6.246  0.4390E-14  0.9301E-29  0.0000E+00
     -6.165  0.2581E-01  0.5468E-16  0.0000E+00
     -6.084  0.0000E+00  0.0000E+00  0.0000E+00
     -6.003  0.0000E+00  0.0000E+00  0.0000E+00
     -5.922  0.0000E+00  0.0000E+00  0.0000E+00
     -5.841  0.1705E-01  0.3120E-03  0.0000E+00
     -5.761  0.1878E+00  0.3436E-02  0.0000E+00
     -5.680  0.1530E+00  0.3879E-02  0.0000E+00
     -5.599  0.0000E+00  0.0000E+00  0.0000E+00
     -5.518  0.0000E+00  0.0000E+00  0.0000E+00
     -5.437  0.0000E+00  0.0000E+00  0.0000E+00
     -5.356  0.0000E+00  0.0000E+00  0.0000E+00
     -5.275  0.1465E-06  0.6893E-08  0.0000E+00
     -5.194  0.3043E+00  0.1431E-01  0.0000E+00
     -5.114  0.0000E+00  0.0000E+00  0.0000E+00
     -5.033  0.0000E+00  0.0000E+00  0.0000E+00
     -4.952  0.0000E+00  0.0000E+00  0.0000E+00
     -4.871  0.6016E+00  0.3898E-01  0.0000E+00
     -4.790  0.2037E+00  0.1230E-01  0.0000E+00
     -4.709  0.0000E+00  0.0000E+00  0.0000E+00
     -4.628  0.0000E+00  0.0000E+00  0.0000E+00
     -4.548  0.0000E+00  0.0000E+00  0.0000E+00
     -4.467  0.0000E+00  0.0000E+00  0.0000E+00
     -4.386  0.0000E+00  0.0000E+00  0.0000E+00
     -4.305  0.1077E-03  0.1104E-04  0.0000E+00
     -4.224  0.1479E+00  0.1516E-01  0.0000E+00
     -4.143  0.0000E+00  0.0000E+00  0.0000E+00
     -4.062  0.6012E+00  0.5241E-01  0.0000E+00
     -3.981  0.0000E+00  0.0000E+00  0.0000E+00
     -3.901  0.9838E-01  0.1080E-01  0.0000E+00
     -3.820  0.6120E+00  0.6177E-01  0.0000E+00
     -3.739  0.6146E-13  0.5456E-14  0.0000E+00
     -3.658  0.6316E+00  0.5607E-01  0.0000E+00
     -3.577  0.0000E+00  0.0000E+00  0.0000E+00
     -3.496  0.0000E+00  0.0000E+00  0.0000E+00
     -3.415  0.0000E+00  0.0000E+00  0.0000E+00
     -3.335  0.0000E+00  0.0000E+00  0.0000E+00
     -3.254  0.0000E+00  0.0000E+00  0.0000E+00
     -3.173  0.0000E+00  0.0000E+00  0.0000E+00
     -3.092  0.5894E+00  0.9088E-01  0.0000E+00
     -3.011  0.0000E+00  0.0000E+00  0.0000E+00
     -2.930  0.5670E-03  0.7384E-04  0.0000E+00
     -2.849  0.9398E+00  0.1201E+00  0.0000E+00
     -2.769  0.0000E+00  0.0000E+00  0.0000E+00
     -2.688  0.0000E+00  0.0000E+00  0.0000E+00
     -2.607  0.0000E+00  0.0000E+00  0.0000E+00
     -2.526  0.0000E+00  0.0000E+00  0.0000E+00
     -2.445  0.0000E+00  0.0000E+00  0.0000E+00
     -2.364  0.0000E+00  0.0000E+00  0.0000E+00
     -2.283  0.0000E+00  0.0000E+00  0.0000E+00
     -2.202  0.0000E+00  0.0000E+00  0.0000E+00
     -2.122  0.0000E+00  0.0000E+00  0.0000E+00
     -2.041  0.1965E-01  0.4633E-02  0.0000E+00
     -1.960  0.1208E+00  0.2849E-01  0.0000E+00
     -1.879  0.0000E+00  0.0000E+00  0.0000E+00
     -1.798  0.0000E+00  0.0000E+00  0.0000E+00
     -1.717  0.0000E+00  0.0000E+00  0.0000E+00
     -1.636  0.0000E+00  0.0000E+00  0.0000E+00
     -1.556  0.0000E+00  0.0000E+00  0.0000E+00
     -1.475  0.0000E+00  0.0000E+00  0.0000E+00
     -1.394  0.0000E+00  0.0000E+00  0.0000E+00
     -1.313  0.0000E+00  0.0000E+00  0.0000E+00
     -1.232  0.1945E-02  0.1888E-02  0.0000E+00
     -1.151  0.4504E-01  0.4371E-01  0.0000E+00
     -1.070  0.9815E-01  0.3994E-01  0.0000E+00
     -0.989  0.4716E+00  0.1875E+00  0.0000E+00
     -0.909  0.1652E+00  0.5915E-01  0.0000E+00
     -0.828  0.3450E+00  0.2509E+00  0.0000E+00
     -0.747  0.5393E+00  0.1769E+00  0.0000E+00
     -0.666  0.0000E+00  0.0000E+00  0.0000E+00
     -0.585  0.0000E+00  0.0000E+00  0.0000E+00
     -0.504  0.0000E+00  0.0000E+00  0.0000E+00
     -0.423  0.0000E+00  0.0000E+00  0.0000E+00
     -0.343  0.0000E+00  0.0000E+00  0.0000E+00
     -0.262  0.1824E-03  0.1318E-03  0.0000E+00
     -0.181  0.3632E+00  0.2623E+00  0.0000E+00
     -0.100  0.0000E+00  0.0000E+00  0.0000E+00
     -0.019  0.0000E+00  0.0000E+00  0.0000E+00
      0.062  0.0000E+00  0.0000E+00  0.0000E+00
      0.143  0.1878E+00  0.8420E-01  0.0000E+00
      0.223  0.3067E+00  0.1375E+00  0.0000E+00
      0.304  0.0000E+00  0.0000E+00  0.0000E+00
      0.385  0.1799E-10  0.1780E-10  0.0000E+00
      0.466  0.1013E+00  0.1003E+00  0.0000E+00
      0.547  0.0000E+00  0.0000E+00  0.0000E+00
      0.628  0.0000E+00  0.0000E+00  0.0000E+00
      0.709  0.0000E+00  0.0000E+00  0.0000E+00
      0.790  0.1093E+00  0.4940E-01  0.0000E+00
      0.870  0.0000E+00  0.0000E+00  0.0000E+00
      0.951  0.0000E+00  0.0000E+00  0.0000E+00
      1.032  0.0000E+00  0.0000E+00  0.0000E+00
      1.113  0.0000E+00  0.0000E+00  0.0000E+00
      1.194  0.0000E+00  0.0000E+00  0.0000E+00
      1.275  0.9972E-12  0.3872E-10  0.0000E+00
      1.356  0.3586E+00  0.5088E+00  0.0000E+00
      1.436  0.0000E+00  0.0000E+00  0.0000E+00
      1.517  0.0000E+00  0.0000E+00  0.0000E+00
      1.598  0.0000E+00  0.0000E+00  0.0000E+00
      1.679  0.5018E-15  0.3601E-14  0.0000E+00
      1.760  0.6025E-01  0.4325E+00  0.0000E+00
      1.841  0.0000E+00  0.0000E+00  0.0000E+00
      1.922  0.0000E+00  0.0000E+00  0.0000E+00
      2.002  0.0000E+00  0.0000E+00  0.0000E+00
      2.083  0.1765E+00  0.1626E+00  0.0000E+00
      2.164  0.1843E-01  0.4917E+00  0.0000E+00
      2.245  0.3354E-01  0.4402E+00  0.0000E+00
      2.326  0.0000E+00  0.0000E+00  0.0000E+00
      2.407  0.0000E+00  0.0000E+00  0.0000E+00
      2.488  0.0000E+00  0.0000E+00  0.0000E+00
      2.569  0.0000E+00  0.0000E+00  0.0000E+00
      2.649  0.0000E+00  0.0000E+00  0.0000E+00
      2.730  0.1028E+00  0.4472E+00  0.0000E+00
      2.811  0.0000E+00  0.0000E+00  0.0000E+00
      2.892  0.4456E-22  0.2834E-05  0.0000E+00
      2.973  0.2466E-02  0.1526E+00  0.0000E+00
      3.054  0.1269E+00  0.9576E+00  0.0000E+00
      3.135  0.0000E+00  0.0000E+00  0.0000E+00
      3.215  0.3464E-16  0.1229E+00  0.0000E+00
      3.296  0.6251E-13  0.4554E+00  0.0000E+00
      3.377  0.1776E-01  0.5319E+00  0.0000E+00
      3.458  0.7385E-01  0.1551E+00  0.0000E+00
      3.539  0.1277E-01  0.5172E+00  0.0000E+00
      3.620  0.1542E-26  0.2156E-11  0.0000E+00
      3.701  0.4297E-15  0.2955E+00  0.0000E+00
      3.782  0.1569E+00  0.4224E+00  0.0000E+00
      3.862  0.0000E+00  0.0000E+00  0.0000E+00
      3.943  0.0000E+00  0.0000E+00  0.0000E+00
      4.024  0.1208E-13  0.6525E+00  0.0000E+00
      4.105  0.1450E-14  0.5308E+00  0.0000E+00
      4.186  0.0000E+00  0.0000E+00  0.0000E+00
      4.267  0.0000E+00  0.0000E+00  0.0000E+00
      4.348  0.0000E+00  0.0000E+00  0.0000E+00
      4.428  0.0000E+00  0.0000E+00  0.0000E+00
      4.509  0.4104E-16  0.6177E+00  0.0000E+00
      4.590  0.2677E-15  0.2496E+00  0.0000E+00
      4.671  0.2310E-15  0.1376E+00  0.0000E+00
      4.752  0.3653E-24  0.1026E-07  0.0000E+00
      4.833  0.1492E-16  0.4190E+00  0.0000E+00
      4.914  0.0000E+00  0.0000E+00  0.0000E+00
      4.994  0.0000E+00  0.0000E+00  0.0000E+00
      5.075  0.0000E+00  0.0000E+00  0.0000E+00
      5.156  0.0000E+00  0.0000E+00  0.0000E+00
      5.237  0.1368E-15  0.2600E+00  0.0000E+00
      5.318  0.1889E-19  0.1726E-03  0.0000E+00
      5.399  0.4522E-16  0.4130E+00  0.0000E+00
      5.480  0.0000E+00  0.0000E+00  0.0000E+00
      5.561  0.0000E+00  0.0000E+00  0.0000E+00
      5.641  0.0000E+00  0.0000E+00  0.0000E+00
      5.722  0.0000E+00  0.0000E+00  0.0000E+00
      5.803  0.4427E-13  0.6297E-01  0.0000E+00
      5.884  0.0000E+00  0.0000E+00  0.0000E+00
      5.965  0.0000E+00  0.0000E+00  0.0000E+00
      6.046  0.0000E+00  0.0000E+00  0.0000E+00
      6.127  0.0000E+00  0.0000E+00  0.0000E+00
      6.207  0.0000E+00  0.0000E+00  0.0000E+00
      6.288  0.0000E+00  0.0000E+00  0.0000E+00
      6.369  0.1415E-02  0.9109E-03  0.0000E+00
      6.450  0.7442E-01  0.6447E-01  0.0000E+00
      6.531  0.0000E+00  0.0000E+00  0.0000E+00
      6.612  0.0000E+00  0.0000E+00  0.0000E+00
      6.693  0.2081E-12  0.1739E-12  0.0000E+00
      6.774  0.1476E+00  0.1233E+00  0.0000E+00
      6.854  0.0000E+00  0.0000E+00  0.0000E+00
      6.935  0.0000E+00  0.0000E+00  0.0000E+00
      7.016  0.0000E+00  0.0000E+00  0.0000E+00
      7.097  0.0000E+00  0.0000E+00  0.0000E+00
      7.178  0.0000E+00  0.0000E+00  0.0000E+00
      7.259  0.1037E+00  0.5656E-01  0.0000E+00
      7.340  0.5196E-01  0.4961E-02  0.0000E+00
      7.420  0.1488E-01  0.4946E-01  0.0000E+00
      7.501  0.1657E+00  0.2896E-01  0.0000E+00
      7.582  0.0000E+00  0.0000E+00  0.0000E+00
      7.663  0.2121E-01  0.2517E-01  0.0000E+00
      7.744  0.2177E+00  0.3340E+00  0.0000E+00
      7.825  0.0000E+00  0.0000E+00  0.0000E+00
      7.906  0.0000E+00  0.0000E+00  0.0000E+00
      7.986  0.0000E+00  0.0000E+00  0.0000E+00
      8.067  0.1114E-02  0.6375E-03  0.0000E+00
      8.148  0.1225E+00  0.7030E-01  0.0000E+00
      8.229  0.2335E+00  0.1814E+00  0.0000E+00
      8.310  0.4428E-12  0.2615E-01  0.0000E+00
      8.391  0.3861E-04  0.8096E-04  0.0000E+00
      8.472  0.9937E-01  0.2083E+00  0.0000E+00
      8.553  0.8395E-03  0.2898E-02  0.0000E+00
      8.633  0.8451E-01  0.2917E+00  0.0000E+00
      8.714  0.0000E+00  0.0000E+00  0.0000E+00
      8.795  0.1321E+00  0.1266E+00  0.0000E+00
      8.876  0.0000E+00  0.0000E+00  0.0000E+00
      8.957  0.4389E-13  0.6902E-01  0.0000E+00
      9.038  0.4460E-03  0.2344E+00  0.0000E+00
      9.119  0.4225E-01  0.3338E+00  0.0000E+00
      9.199  0.2396E-01  0.2011E-09  0.0000E+00
      9.280  0.5955E-01  0.3042E+00  0.0000E+00
      9.361  0.1206E+00  0.3857E+00  0.0000E+00
      9.442  0.5639E-01  0.1722E+00  0.0000E+00
      9.523  0.6788E-15  0.2665E-14  0.0000E+00
      9.604  0.4495E-01  0.1765E+00  0.0000E+00
      9.685  0.0000E+00  0.0000E+00  0.0000E+00
      9.765  0.4783E-03  0.5525E-03  0.0000E+00
      9.846  0.3865E+00  0.5806E+00  0.0000E+00
      9.927  0.7008E-11  0.8623E-08  0.0000E+00
     10.008  0.1911E+00  0.6337E+00  0.0000E+00
     10.089  0.7710E-01  0.4591E-01  0.0000E+00
     10.170  0.6701E-08  0.2402E+00  0.0000E+00
     10.251  0.4897E-01  0.1766E+00  0.0000E+00
     10.332  0.1089E-12  0.3220E-04  0.0000E+00
     10.412  0.1051E-08  0.3106E+00  0.0000E+00
     10.493  0.0000E+00  0.0000E+00  0.0000E+00
     10.574  0.0000E+00  0.0000E+00  0.0000E+00
     10.655  0.0000E+00  0.0000E+00  0.0000E+00
     10.736  0.0000E+00  0.0000E+00  0.0000E+00
     10.817  0.1783E-09  0.3531E-01  0.0000E+00
     10.898  0.1873E-08  0.3710E+00  0.0000E+00
     10.978  0.0000E+00  0.0000E+00  0.0000E+00
     11.059  0.0000E+00  0.0000E+00  0.0000E+00
     11.140  0.0000E+00  0.0000E+00  0.0000E+00
     11.221  0.1660E+00  0.1135E+00  0.0000E+00
     11.302  0.0000E+00  0.0000E+00  0.0000E+00
     11.383  0.8898E-01  0.1191E+00  0.0000E+00
     11.464  0.1365E-09  0.1872E-08  0.0000E+00
     11.545  0.8129E-02  0.1114E+00  0.0000E+00
     11.625  0.0000E+00  0.0000E+00  0.0000E+00
     11.706  0.0000E+00  0.0000E+00  0.0000E+00
     11.787  0.8047E-05  0.3613E-04  0.0000E+00
     11.868  0.5472E-01  0.2456E+00  0.0000E+00
     11.949  0.0000E+00  0.0000E+00  0.0000E+00
     12.030  0.0000E+00  0.0000E+00  0.0000E+00
     12.111  0.7951E-05  0.3902E-04  0.0000E+00
     12.191  0.6080E-01  0.2984E+00  0.0000E+00
     12.272  0.9753E-01  0.5745E+00  0.0000E+00
     12.353  0.0000E+00  0.0000E+00  0.0000E+00
     12.434  0.0000E+00  0.0000E+00  0.0000E+00
     12.515  0.0000E+00  0.0000E+00  0.0000E+00
     12.596  0.0000E+00  0.0000E+00  0.0000E+00
     12.677  0.0000E+00  0.0000E+00  0.0000E+00
     12.757  0.8891E-18  0.2389E-16  0.0000E+00
     12.838  0.8175E-01  0.6273E+00  0.0000E+00
     12.919  0.0000E+00  0.0000E+00  0.0000E+00
     13.000  0.1752E-05  0.3345E-03  0.0000E+00
     13.081  0.8470E-01  0.5404E+00  0.0000E+00
     13.162  0.4827E-15  0.1345E-06  0.0000E+00
     13.243  0.1200E+00  0.7755E+00  0.0000E+00
     13.324  0.3126E-02  0.2427E-01  0.0000E+00
     13.404  0.0000E+00  0.0000E+00  0.0000E+00
     13.485  0.9721E-04  0.9036E-03  0.0000E+00
     13.566  0.1184E-01  0.1101E+00  0.0000E+00
     13.647  0.0000E+00  0.0000E+00  0.0000E+00
     13.728  0.0000E+00  0.0000E+00  0.0000E+00
     13.809  0.0000E+00  0.0000E+00  0.0000E+00
     13.890  0.0000E+00  0.0000E+00  0.0000E+00
     13.970  0.0000E+00  0.0000E+00  0.0000E+00
     14.051  0.0000E+00  0.0000E+00  0.0000E+00
     14.132  0.0000E+00  0.0000E+00  0.0000E+00
     14.213  0.0000E+00  0.0000E+00  0.0000E+00
     14.294  0.0000E+00  0.0000E+00  0.0000E+00
     14.375  0.0000E+00  0.0000E+00  0.0000E+00
     14.456  0.0000E+00  0.0000E+00  0.0000E+00
     14.537  0.0000E+00  0.0000E+00  0.0000E+00
     14.617  0.0000E+00  0.0000E+00  0.0000E+00
     14.698  0.0000E+00  0.0000E+00  0.0000E+00
     14.779  0.0000E+00  0.0000E+00  0.0000E+00
     14.860  0.0000E+00  0.0000E+00  0.0000E+00
     14.941  0.0000E+00  0.0000E+00  0.0000E+00
     15.022  0.0000E+00  0.0000E+00  0.0000E+00
     15.103  0.0000E+00  0.0000E+00  0.0000E+00
     15.183  0.0000E+00  0.0000E+00  0.0000E+00
     15.264  0.0000E+00  0.0000E+00  0.0000E+00
     15.345  0.0000E+00  0.0000E+00  0.0000E+00
     15.426  0.0000E+00  0.0000E+00  0.0000E+00
     15.507  0.0000E+00  0.0000E+00  0.0000E+00
     15.588  0.0000E+00  0.0000E+00  0.0000E+00
     15.669  0.0000E+00  0.0000E+00  0.0000E+00
     15.749  0.0000E+00  0.0000E+00  0.0000E+00
     15.830  0.7509E-10  0.4998E-05  0.0000E+00
     15.911  0.3558E-05  0.1739E+00  0.0000E+00
     15.992  0.0000E+00  0.0000E+00  0.0000E+00
     16.073  0.0000E+00  0.0000E+00  0.0000E+00
     16.154  0.0000E+00  0.0000E+00  0.0000E+00
     16.235  0.0000E+00  0.0000E+00  0.0000E+00
     16.316  0.0000E+00  0.0000E+00  0.0000E+00
     16.396  0.0000E+00  0.0000E+00  0.0000E+00
     16.477  0.0000E+00  0.0000E+00  0.0000E+00
     16.558  0.0000E+00  0.0000E+00  0.0000E+00
     16.639  0.0000E+00  0.0000E+00  0.0000E+00
     16.720  0.0000E+00  0.0000E+00  0.0000E+00
     16.801  0.0000E+00  0.0000E+00  0.0000E+00
     16.882  0.0000E+00  0.0000E+00  0.0000E+00
     16.962  0.0000E+00  0.0000E+00  0.0000E+00
     16.96244189     -7.29693890  301      5.89409941      1.00000000
     -7.297  0.0000E+00  0.0000E+00  0.0000E+00
     -7.216  0.0000E+00  0.0000E+00  0.0000E+00
     -7.135  0.0000E+00  0.0000E+00  0.0000E+00
     -7.054  0.0000E+00  0.0000E+00  0.0000E+00
     -6.973  0.0000E+00  0.0000E+00  0.0000E+00
     -6.893  0.0000E+00  0.0000E+00  0.0000E+00
     -6.812  0.0000E+00  0.0000E+00  0.0000E+00
     -6.731  0.0000E+00  0.0000E+00  0.0000E+00
     -6.650  0.0000E+00  0.0000E+00  0.0000E+00
     -6.569  0.0000E+00  0.0000E+00  0.0000E+00
     -6.488  0.0000E+00  0.0000E+00  0.0000E+00
     -6.407  0.0000E+00  0.0000E+00  0.0000E+00
     -6.327  0.0000E+00  0.0000E+00  0.0000E+00
     -6.246  0.4390E-14  0.1222E-28  0.0000E+00
     -6.165  0.2581E-01  0.7182E-16  0.0000E+00
     -6.084  0.0000E+00  0.0000E+00  0.0000E+00
     -6.003  0.0000E+00  0.0000E+00  0.0000E+00
     -5.922  0.0000E+00  0.0000E+00  0.0000E+00
     -5.841  0.1705E-01  0.3120E-03  0.0000E+00
     -5.761  0.1878E+00  0.3436E-02  0.0000E+00
     -5.680  0.1530E+00  0.3879E-02  0.0000E+00
     -5.599  0.0000E+00  0.0000E+00  0.0000E+00
     -5.518  0.0000E+00  0.0000E+00  0.0000E+00
     -5.437  0.0000E+00  0.0000E+00  0.0000E+00
     -5.356  0.0000E+00  0.0000E+00  0.0000E+00
     -5.275  0.1465E-06  0.6893E-08  0.0000E+00
     -5.194  0.3043E+00  0.1431E-01  0.0000E+00
     -5.114  0.0000E+00  0.0000E+00  0.0000E+00
     -5.033  0.0000E+00  0.0000E+00  0.0000E+00
     -4.952  0.0000E+00  0.0000E+00  0.0000E+00
     -4.871  0.6016E+00  0.3898E-01  0.0000E+00
     -4.790  0.2037E+00  0.1230E-01  0.0000E+00
     -4.709  0.0000E+00  0.0000E+00  0.0000E+00
     -4.628  0.0000E+00  0.0000E+00  0.0000E+00
     -4.548  0.0000E+00  0.0000E+00  0.0000E+00
     -4.467  0.0000E+00  0.0000E+00  0.0000E+00
     -4.386  0.0000E+00  0.0000E+00  0.0000E+00
     -4.305  0.1077E-03  0.1104E-04  0.0000E+00
     -4.224  0.1479E+00  0.1516E-01  0.0000E+00
     -4.143  0.0000E+00  0.0000E+00  0.0000E+00
     -4.062  0.6012E+00  0.5241E-01  0.0000E+00
     -3.981  0.0000E+00  0.0000E+00  0.0000E+00
     -3.901  0.9838E-01  0.1080E-01  0.0000E+00
     -3.820  0.6120E+00  0.6177E-01  0.0000E+00
     -3.739  0.6146E-13  0.5456E-14  0.0000E+00
     -3.658  0.6316E+00  0.5607E-01  0.0000E+00
     -3.577  0.0000E+00  0.0000E+00  0.0000E+00
     -3.496  0.0000E+00  0.0000E+00  0.0000E+00
     -3.415  0.0000E+00  0.0000E+00  0.0000E+00
     -3.335  0.0000E+00  0.0000E+00  0.0000E+00
     -3.254  0.0000E+00  0.0000E+00  0.0000E+00
     -3.173  0.0000E+00  0.0000E+00  0.0000E+00
     -3.092  0.5894E+00  0.9088E-01  0.0000E+00
     -3.011  0.0000E+00  0.0000E+00  0.0000E+00
     -2.930  0.5670E-03  0.7384E-04  0.0000E+00
     -2.849  0.9398E+00  0.1201E+00  0.0000E+00
     -2.769  0.0000E+00  0.0000E+00  0.0000E+00
     -2.688  0.0000E+00  0.0000E+00  0.0000E+00
     -2.607  0.0000E+00  0.0000E+00  0.0000E+00
     -2.526  0.0000E+00  0.0000E+00  0.0000E+00
     -2.445  0.0000E+00  0.0000E+00  0.0000E+00
     -2.364  0.0000E+00  0.0000E+00  0.0000E+00
     -2.283  0.0000E+00  0.0000E+00  0.0000E+00
     -2.202  0.0000E+00  0.0000E+00  0.0000E+00
     -2.122  0.0000E+00  0.0000E+00  0.0000E+00
     -2.041  0.1965E-01  0.4633E-02  0.0000E+00
     -1.960  0.1208E+00  0.2849E-01  0.0000E+00
     -1.879  0.0000E+00  0.0000E+00  0.0000E+00
     -1.798  0.0000E+00  0.0000E+00  0.0000E+00
     -1.717  0.0000E+00  0.0000E+00  0.0000E+00
     -1.636  0.0000E+00  0.0000E+00  0.0000E+00
     -1.556  0.0000E+00  0.0000E+00  0.0000E+00
     -1.475  0.0000E+00  0.0000E+00  0.0000E+00
     -1.394  0.0000E+00  0.0000E+00  0.0000E+00
     -1.313  0.0000E+00  0.0000E+00  0.0000E+00
     -1.232  0.1945E-02  0.1888E-02  0.0000E+00
     -1.151  0.4504E-01  0.4371E-01  0.0000E+00
     -1.070  0.9815E-01  0.3994E-01  0.0000E+00
     -0.989  0.4716E+00  0.1875E+00  0.0000E+00
     -0.909  0.1652E+00  0.5915E-01  0.0000E+00
     -0.828  0.3450E+00  0.2509E+00  0.0000E+00
     -0.747  0.5393E+00  0.1769E+00  0.0000E+00
     -0.666  0.0000E+00  0.0000E+00  0.0000E+00
     -0.585  0.0000E+00  0.0000E+00  0.0000E+00
     -0.504  0.0000E+00  0.0000E+00  0.0000E+00
     -0.423  0.0000E+00  0.0000E+00  0.0000E+00
     -0.343  0.0000E+00  0.0000E+00  0.0000E+00
     -0.262  0.1824E-03  0.1318E-03  0.0000E+00
     -0.181  0.3632E+00  0.2623E+00  0.0000E+00
     -0.100  0.0000E+00  0.0000E+00  0.0000E+00