    2    2    1    1
  0.2002393E+02  0.3840297E-09  0.3840297E-09  0.3840297E-09  0.5000000E-15
  1.000000000000000E-004
  CAR 
 Name                                    
      8    299      8
 
  0.0000000E+00  0.0000000E+00  0.0000000E+00  0.4901961E-02
    1       -6.194240   1.000000
    2        5.797175   1.000000
    3        5.797175   1.000000
    4        5.797175   1.000000
    5        8.310366   0.000000
    6        8.310366   0.000000
    7        8.310366   0.000000
    8        9.119485   0.000000
 
  0.1666667E+00  0.0000000E+00  0.0000000E+00  0.3921569E-01
    1       -5.831592   1.000000
    2        3.396946   1.000000
    3        5.341562   1.000000
    4        5.341562   1.000000
    5        8.084046   0.000000
    6        8.962044   0.000000
    7        8.962044   0.000000
    8       11.200341   0.000000
 
  0.3333333E+00  0.0000000E+00  0.0000000E+00  0.3921569E-01
    1       -4.810303   1.000000
    2        0.429552   1.000000
    3        4.790460   1.000000
    4        4.790460   1.000000
    5        7.486686   0.000000
    6        9.241998   0.000000
    7        9.241998   0.000000
    8       13.502253   0.000000
 
  0.5000000E+00  0.0000000E+00  0.0000000E+00  0.1960784E-01
    1       -3.844049   1.000000
    2       -1.219828   1.000000
    3        4.592860   1.000000
    4        4.592861   1.000000
    5        7.259940   0.000000
    6        9.065419   0.000000
    7        9.065419   0.000000
    8       13.305248   0.000000
 
  0.1666667E+00  0.1666667E+00  0.0000000E+00  0.2941176E-01
    1       -5.708266   1.000000
    2        3.756019   1.000000
    3        4.588380   1.000000
    4        4.588380   1.000000
    5        7.417280   0.000000
    6       10.019302   0.000000
    7       10.105825   0.000000
    8       10.105826   0.000000
 
  0.3333333E+00  0.1666667E+00  0.0000000E+00  0.1176471E+00
    1       -4.889151   1.000000
    2        1.343195   1.000000
    3        3.778349   1.000000
    4        4.033414   1.000000
    5        7.673941   0.000000
    6        9.785389   0.000000
    7       10.248908   0.000000
    8       10.826349   0.000000
 
  0.5000000E+00  0.1666667E+00  0.0000000E+00  0.1176471E+00
    1       -3.686907   1.000000
    2       -0.843667   1.000000
    3        2.987445   1.000000
    4        4.006063   1.000000
    5        7.743965   0.000000
    6        9.845657   0.000000
    7       10.357778   0.000000
    8       12.136380   0.000000
 
 -0.3333333E+00  0.1666667E+00  0.0000000E+00  0.1176471E+00
    1       -4.076321   1.000000
    2       -0.238459   1.000000
    3        2.711371   1.000000
    4        4.490971   1.000000
    5        8.167518   0.000000
    6        9.842723   0.000000
    7        9.965736   0.000000
    8       13.029065   0.000000
 
 -0.1666667E+00  0.1666667E+00  0.0000000E+00  0.5882353E-01
    1       -5.240683   1.000000
    2        2.066748   1.000000
    3        3.344800   1.000000
    4        5.230858   1.000000
    5        8.783203   0.000000
    6        9.305735   0.000000
    7        9.576622   0.000000
    8       11.374705   0.000000
 
  0.3333333E+00  0.3333333E+00  0.0000000E+00  0.2941176E-01
    1       -4.282439   1.000000
    2        0.781870   1.000000
    3        3.357281   1.000000
    4        3.357281   1.000000
    5        6.412475   0.000000
    6        7.663972   0.000000
    7       13.021273   0.000000
    8       13.021275   0.000000
 
  0.5000000E+00  0.3333333E+00  0.0000000E+00  0.1176471E+00
    1       -3.111674   1.000000
    2       -0.776943   1.000000
    3        2.113757   1.000000
    4        3.221101   1.000000
    5        6.742039   0.000000
    6        8.414559   0.000000
    7       13.196821   0.000000
    8       13.223583   0.000000
 
 -0.3333333E+00  0.3333333E+00  0.0000000E+00  0.5882353E-01
    1       -2.909673   1.000000
    2       -0.986852   1.000000
    3        1.319065   1.000000
    4        3.667526   1.000000
    5        7.252313   0.000000
    6       11.502692   0.000000
    7       12.225089   0.000000
    8       12.818184   0.000000
 
  0.5000000E+00  0.5000000E+00  0.0000000E+00  0.1470588E-01
    1       -2.033097   1.000000
    2       -2.033097   1.000000
    3        2.921066   1.000000
    4        2.921066   1.000000
    5        6.381803   0.000000
    6        6.381803   0.000000
    7       15.858170   0.000000
    8       15.859743   0.000000
 
  0.5000000E+00  0.3333333E+00  0.1666667E+00  0.1176471E+00
    1       -3.893699   1.000000
    2        0.144768   1.000000
    3        2.176415   1.000000
    4        3.471157   1.000000
    5        8.569017   0.000000
    6        9.402462   0.000000
    7        9.973254   0.000000
    8       12.815993   0.000000
 
 -0.3333333E+00  0.3333333E+00  0.1666667E+00  0.1176471E+00
    1       -2.899045   1.000000
    2       -1.064534   1.000000
    3        1.733294   1.000000
    4        2.996146   1.000000
    5        9.052346   0.000000
    6        9.283404   0.000000
    7       11.812708   0.000000
    8       12.250694   0.000000
 
  0.0000000E+00  0.0000000E+00  0.0000000E+00  0.0000000E+00
    1       -6.194240   1.000000
    2        5.797175   1.000000
    3        5.797175   1.000000
    4        5.797175   1.000000
    5        8.310366   0.000000
    6        8.310366   0.000000
    7        8.310366   0.000000
    8        9.119485   0.000000
 
  0.1760560E-02  0.0000000E+00  0.1760560E-02  0.0000000E+00
    1       -6.194186   1.000000
    2        5.796794   1.000000
    3        5.796930   1.000000
    4        5.796930   1.000000
    5        8.310223   0.000000
    6        8.310678   0.000000
    7        8.310678   0.000000
    8        9.119859   0.000000
 
  0.3521130E-02  0.0000000E+00  0.3521130E-02  0.0000000E+00
    1       -6.194024   1.000000
    2        5.795654   1.000000
    3        5.796197   1.000000
    4        5.796197   1.000000
    5        8.309793   0.000000
    6        8.311611   0.000000
    7        8.311611   0.000000
    8        9.120979   0.000000
 
  0.5281690E-02  0.0000000E+00  0.5281690E-02  0.0000000E+00
    1       -6.193753   1.000000
    2        5.793756   1.000000
    3        5.794975   1.000000
    4        5.794976   1.000000
    5        8.309076   0.000000
    6        8.313166   0.000000
    7        8.313166   0.000000
    8        9.122844   0.000000
 
  0.7042250E-02  0.0000000E+00  0.7042250E-02  0.0000000E+00
    1       -6.193372   1.000000
    2        5.791102   1.000000
    3        5.793269   1.000000
    4        5.793269   1.000000
    5        8.308073   0.000000
    6        8.315339   0.000000
    7        8.315339   0.000000
    8        9.125451   0.000000
 
  0.8802820E-02  0.0000000E+00  0.8802820E-02  0.0000000E+00
    1       -6.192883   1.000000
    2        5.787696   1.000000
    3        5.791078   1.000000
    4        5.791078   1.000000
    5        8.306785   0.000000
    6        8.318129   0.000000
    7        8.318129   0.000000
    8        9.128796   0.000000
 
  0.1056338E-01  0.0000000E+00  0.1056338E-01  0.0000000E+00
    1       -6.192284   1.000000
    2        5.783544   1.000000
    3        5.788409   1.000000
    4        5.788409   1.000000
    5        8.305212   0.000000
    6        8.321532   0.000000
    7        8.321532   0.000000
    8        9.132872   0.000000
 
  0.1232394E-01  0.0000000E+00  0.1232394E-01  0.0000000E+00
    1       -6.191577   1.000000
    2        5.778650   1.000000
    3        5.785263   1.000000
    4        5.785263   1.000000
    5        8.303356   0.000000
    6        8.325545   0.000000
    7        8.325545   0.000000
    8        9.137673   0.000000
 
  0.1408451E-01  0.0000000E+00  0.1408451E-01  0.0000000E+00
    1       -6.190760   1.000000
    2        5.773023   1.000000
    3        5.781646   1.000000
    4        5.781646   1.000000
    5        8.301217   0.000000
    6        8.330161   0.000000
    7        8.330161   0.000000
    8        9.143192   0.000000
 
  0.1584507E-01  0.0000000E+00  0.1584507E-01  0.0000000E+00
    1       -6.189835   1.000000
    2        5.766668   1.000000
    3        5.777564   1.000000
    4        5.777564   1.000000
    5        8.298797   0.000000
    6        8.335376   0.000000
    7        8.335376   0.000000
    8        9.149419   0.000000
 
  0.1760563E-01  0.0000000E+00  0.1760563E-01  0.0000000E+00
    1       -6.188800   1.000000
    2        5.759595   1.000000
    3        5.773021   1.000000
    4        5.773021   1.000000
    5        8.296098   0.000000
    6        8.341184   0.000000
    7        8.341184   0.000000
    8        9.156344   0.000000
 
  0.1936620E-01  0.0000000E+00  0.1936620E-01  0.0000000E+00
    1       -6.187657   1.000000
    2        5.751813   1.000000
    3        5.768025   1.000000
    4        5.768025   1.000000
    5        8.293121   0.000000
    6        8.347578   0.000000
    7        8.347578   0.000000
    8        9.163957   0.000000
 
  0.2112676E-01  0.0000000E+00  0.2112676E-01  0.0000000E+00
    1       -6.186404   1.000000
    2        5.743333   1.000000
    3        5.762584   1.000000
    4        5.762584   1.000000
    5        8.289868   0.000000
    6        8.354551   0.000000
    7        8.354551   0.000000
    8        9.172246   0.000000
 
  0.2288732E-01  0.0000000E+00  0.2288732E-01  0.0000000E+00
    1       -6.185043   1.000000
    2        5.734165   1.000000
    3        5.756704   1.000000
    4        5.756704   1.000000
    5        8.286341   0.000000
    6        8.362095   0.000000
    7        8.362095   0.000000
    8        9.181198   0.000000
 
  0.2464789E-01  0.0000000E+00  0.2464789E-01  0.0000000E+00
    1       -6.183572   1.000000
    2        5.724322   1.000000
    3        5.750394   1.000000
    4        5.750394   1.000000
    5        8.282543   0.000000
    6        8.370203   0.000000
    7        8.370203   0.000000
    8        9.190800   0.000000
 
  0.2640845E-01  0.0000000E+00  0.2640845E-01  0.0000000E+00
    1       -6.181993   1.000000
    2        5.713815   1.000000
    3        5.743662   1.000000
    4        5.743662   1.000000
    5        8.278476   0.000000
    6        8.378865   0.000000
    7        8.378865   0.000000
    8        9.201037   0.000000
 
  0.2816902E-01  0.0000000E+00  0.2816902E-01  0.0000000E+00
    1       -6.180305   1.000000
    2        5.702653   1.000000
    3        5.736517   1.000000
    4        5.736517   1.000000
    5        8.274140   0.000000
    6        8.388073   0.000000
    7        8.388073   0.000000
    8        9.211894   0.000000
 
  0.2992958E-01  0.0000000E+00  0.2992958E-01  0.0000000E+00
    1       -6.178508   1.000000
    2        5.690856   1.000000
    3        5.728968   1.000000
    4        5.728968   1.000000
    5        8.269542   0.000000
    6        8.397818   0.000000
    7        8.397818   0.000000
    8        9.223356   0.000000
 
  0.3169014E-01  0.0000000E+00  0.3169014E-01  0.0000000E+00
    1       -6.176601   1.000000
    2        5.678434   1.000000
    3        5.721025   1.000000
    4        5.721025   1.000000
    5        8.264684   0.000000
    6        8.408090   0.000000
    7        8.408090   0.000000
    8        9.235405   0.000000
 
  0.3345070E-01  0.0000000E+00  0.3345070E-01  0.0000000E+00
    1       -6.174586   1.000000
    2        5.665400   1.000000
    3        5.712698   1.000000
    4        5.712698   1.000000
    5        8.259567   0.000000
    6        8.418879   0.000000
    7        8.418879   0.000000
    8        9.248026   0.000000
 
  0.3521127E-01  0.0000000E+00  0.3521127E-01  0.0000000E+00
    1       -6.172465   1.000000
    2        5.651761   1.000000
    3        5.703993   1.000000
    4        5.703994   1.000000
    5        8.254192   0.000000
    6        8.430172   0.000000
    7        8.430172   0.000000
    8        9.261197   0.000000
 
  0.3697183E-01  0.0000000E+00  0.3697183E-01  0.0000000E+00
    1       -6.170231   1.000000
    2        5.637548   1.000000
    3        5.694927   1.000000
    4        5.694927   1.000000
    5        8.248568   0.000000
    6        8.441966   0.000000
    7        8.441966   0.000000
    8        9.274909   0.000000
 
  0.3873239E-01  0.0000000E+00  0.3873239E-01  0.0000000E+00
    1       -6.167889   1.000000
    2        5.622766   1.000000
    3        5.685507   1.000000
    4        5.685507   1.000000
    5        8.242696   0.000000
    6        8.454246   0.000000
    7        8.454246   0.000000
    8        9.289138   0.000000
 
  0.4049296E-01  0.0000000E+00  0.4049296E-01  0.0000000E+00
    1       -6.165438   1.000000
    2        5.607430   1.000000
    3        5.675742   1.000000
    4        5.675742   1.000000
    5        8.236578   0.000000
    6        8.467003   0.000000
    7        8.467003   0.000000
    8        9.303868   0.000000
 
  0.4225352E-01  0.0000000E+00  0.4225352E-01  0.0000000E+00
    1       -6.162878   1.000000
    2        5.591556   1.000000
    3        5.665644   1.000000
    4        5.665644   1.000000
    5        8.230220   0.000000
    6        8.480226   0.000000
    7        8.480226   0.000000
    8        9.319078   0.000000
 
  0.4401409E-01  0.0000000E+00  0.4401409E-01  0.0000000E+00
    1       -6.160210   1.000000
    2        5.575156   1.000000
    3        5.655223   1.000000
    4        5.655223   1.000000
    5        8.223623   0.000000
    6        8.493904   0.000000
    7        8.493904   0.000000
    8        9.334750   0.000000
 
  0.4577465E-01  0.0000000E+00  0.4577465E-01  0.0000000E+00
    1       -6.157432   1.000000
    2        5.558246   1.000000
    3        5.644489   1.000000
    4        5.644489   1.000000
    5        8.216792   0.000000
    6        8.508027   0.000000
    7        8.508027   0.000000
    8        9.350863   0.000000
 
  0.4753521E-01  0.0000000E+00  0.4753521E-01  0.0000000E+00
    1       -6.154545   1.000000
    2        5.540840   1.000000
    3        5.633452   1.000000
    4        5.633453   1.000000
    5        8.209730   0.000000
    6        8.522585   0.000000
    7        8.522585   0.000000
    8        9.367399   0.000000
 
  0.4929578E-01  0.0000000E+00  0.4929578E-01  0.0000000E+00
    1       -6.151551   1.000000
    2        5.522946   1.000000
    3        5.622122   1.000000
    4        5.622122   1.000000
    5        8.202438   0.000000
    6        8.537561   0.000000
    7        8.537561   0.000000
    8        9.384330   0.000000
 
  0.5105634E-01  0.0000000E+00  0.5105634E-01  0.0000000E+00
    1       -6.148447   1.000000
    2        5.504591   1.000000
    3        5.610512   1.000000
    4        5.610512   1.000000
    5        8.194928   0.000000
    6        8.552957   0.000000
    7        8.552957   0.000000
    8        9.401650   0.000000
 
  0.5281691E-01  0.0000000E+00  0.5281691E-01  0.0000000E+00
    1       -6.145234   1.000000
    2        5.485783   1.000000
    3        5.598629   1.000000
    4        5.598629   1.000000
    5        8.187198   0.000000
    6        8.568756   0.000000
    7        8.568756   0.000000
    8        9.419332   0.000000
 
  0.5457747E-01  0.0000000E+00  0.5457747E-01  0.0000000E+00
    1       -6.141913   1.000000
    2        5.466535   1.000000
    3        5.586485   1.000000
    4        5.586485   1.000000
    5        8.179255   0.000000
    6        8.584949   0.000000
    7        8.584950   0.000000
    8        9.437355   0.000000
 
  0.5633803E-01  0.0000000E+00  0.5633803E-01  0.0000000E+00
    1       -6.138483   1.000000
    2        5.446862   1.000000
    3        5.574089   1.000000
    4        5.574089   1.000000
    5        8.171101   0.000000
    6        8.601526   0.000000
    7        8.601526   0.000000
    8        9.455697   0.000000
 
  0.5809860E-01  0.0000000E+00  0.5809860E-01  0.0000000E+00
    1       -6.134944   1.000000
    2        5.426775   1.000000
    3        5.561451   1.000000
    4        5.561451   1.000000
    5        8.162740   0.000000
    6        8.618477   0.000000
    7        8.618477   0.000000
    8        9.474339   0.000000
 
  0.5985916E-01  0.0000000E+00  0.5985916E-01  0.0000000E+00
    1       -6.131296   1.000000
    2        5.406288   1.000000
    3        5.548580   1.000000
    4        5.548580   1.000000
    5        8.154178   0.000000
    6        8.635792   0.000000
    7        8.635792   0.000000
    8        9.493259   0.000000
 
  0.6161972E-01  0.0000000E+00  0.6161972E-01  0.0000000E+00
    1       -6.127540   1.000000
    2        5.385407   1.000000
    3        5.535484   1.000000
    4        5.535484   1.000000
    5        8.145418   0.000000
    6        8.653460   0.000000
    7        8.653460   0.000000
    8        9.512433   0.000000
 
  0.6338029E-01  0.0000000E+00  0.6338029E-01  0.0000000E+00
    1       -6.123675   1.000000
    2        5.364159   1.000000
    3        5.522175   1.000000
    4        5.522175   1.000000
    5        8.136464   0.000000
    6        8.671475   0.000000
    7        8.671475   0.000000
    8        9.531843   0.000000
 
  0.6514085E-01  0.0000000E+00  0.6514085E-01  0.0000000E+00
    1       -6.119699   1.000000
    2        5.342549   1.000000
    3        5.508662   1.000000
    4        5.508662   1.000000
    5        8.127323   0.000000
    6        8.689827   0.000000
    7        8.689827   0.000000
    8        9.551467   0.000000
 
  0.6690141E-01  0.0000000E+00  0.6690141E-01  0.0000000E+00
    1       -6.115617   1.000000
    2        5.320589   1.000000
    3        5.494951   1.000000
    4        5.494951   1.000000
    5        8.117995   0.000000
    6        8.708505   0.000000
    7        8.708505   0.000000
    8        9.571278   0.000000
 
  0.6866197E-01  0.0000000E+00  0.6866197E-01  0.0000000E+00
    1       -6.111426   1.000000
    2        5.298291   1.000000
    3        5.481053   1.000000
    4        5.481053   1.000000
    5        8.108487   0.000000
    6        8.727502   0.000000
    7        8.727502   0.000000
    8        9.591256   0.000000
 
  0.7042254E-01  0.0000000E+00  0.7042254E-01  0.0000000E+00
    1       -6.107127   1.000000
    2        5.275665   1.000000
    3        5.466975   1.000000
    4        5.466975   1.000000
    5        8.098803   0.000000
    6        8.746810   0.000000
    7        8.746810   0.000000
    8        9.611378   0.000000
 
  0.7218310E-01  0.0000000E+00  0.7218310E-01  0.0000000E+00
    1       -6.102719   1.000000
    2        5.252724   1.000000
    3        5.452726   1.000000
    4        5.452726   1.000000
    5        8.088947   0.000000
    6        8.766420   0.000000
    7        8.766420   0.000000
    8        9.631619   0.000000
 
  0.7394367E-01  0.0000000E+00  0.7394367E-01  0.0000000E+00
    1       -6.098203   1.000000
    2        5.229477   1.000000
    3        5.438314   1.000000
    4        5.438314   1.000000
    5        8.078924   0.000000
    6        8.786323   0.000000
    7        8.786323   0.000000
    8        9.651955   0.000000
 
  0.7570423E-01  0.0000000E+00  0.7570423E-01  0.0000000E+00
    1       -6.093579   1.000000
    2        5.205935   1.000000
    3        5.423746   1.000000
    4        5.423746   1.000000
    5        8.068738   0.000000
    6        8.806513   0.000000
    7        8.806513   0.000000
    8        9.672362   0.000000
 
  0.7746479E-01  0.0000000E+00  0.7746479E-01  0.0000000E+00
    1       -6.088846   1.000000
    2        5.182108   1.000000
    3        5.409030   1.000000
    4        5.409030   1.000000
    5        8.058393   0.000000
    6        8.826980   0.000000
    7        8.826980   0.000000
    8        9.692815   0.000000
 
  0.7922535E-01  0.0000000E+00  0.7922535E-01  0.0000000E+00
    1       -6.084004   1.000000
    2        5.158006   1.000000
    3        5.394173   1.000000
    4        5.394173   1.000000
    5        8.047895   0.000000
    6        8.847719   0.000000
    7        8.847719   0.000000
    8        9.713286   0.000000
 
  0.8098592E-01  0.0000000E+00  0.8098592E-01  0.0000000E+00
    1       -6.079055   1.000000
    2        5.133638   1.000000
    3        5.379182   1.000000
    4        5.379182   1.000000
    5        8.037246   0.000000
    6        8.868722   0.000000
    7        8.868722   0.000000
    8        9.733750   0.000000
 
  0.8274648E-01  0.0000000E+00  0.8274648E-01  0.0000000E+00
    1       -6.073999   1.000000
    2        5.109006   1.000000
    3        5.364059   1.000000
    4        5.364059   1.000000
    5        8.026452   0.000000
    6        8.889978   0.000000
    7        8.889978   0.000000
    8        9.754178   0.000000
 
  0.8450705E-01  0.0000000E+00  0.8450705E-01  0.0000000E+00
    1       -6.068833   1.000000
    2        5.084134   1.000000
    3        5.348821   1.000000
    4        5.348821   1.000000
    5        8.015517   0.000000
    6        8.911487   0.000000
    7        8.911487   0.000000
    8        9.774544   0.000000
 
  0.8626761E-01  0.0000000E+00  0.8626761E-01  0.0000000E+00
    1       -6.063560   1.000000
    2        5.059023   1.000000
    3        5.333470   1.000000
    4        5.333470   1.000000
    5        8.004445   0.000000
    6        8.933239   0.000000
    7        8.933239   0.000000
    8        9.794817   0.000000
 
  0.8802817E-01  0.0000000E+00  0.8802817E-01  0.0000000E+00
    1       -6.058180   1.000000
    2        5.033681   1.000000
    3        5.318011   1.000000
    4        5.318011   1.000000
    5        7.993241   0.000000
    6        8.955227   0.000000
    7        8.955227   0.000000
    8        9.814967   0.000000
 
  0.8978874E-01  0.0000000E+00  0.8978874E-01  0.0000000E+00
    1       -6.052692   1.000000
    2        5.008115   1.000000
    3        5.302451   1.000000
    4        5.302451   1.000000
    5        7.981908   0.000000
    6        8.977447   0.000000
    7        8.977447   0.000000
    8        9.834964   0.000000
 
  0.9154930E-01  0.0000000E+00  0.9154930E-01  0.0000000E+00
    1       -6.047095   1.000000
    2        4.982335   1.000000
    3        5.286796   1.000000
    4        5.286796   1.000000
    5        7.970451   0.000000
    6        8.999890   0.000000
    7        8.999890   0.000000
    8        9.854774   0.000000
 
  0.9330986E-01  0.0000000E+00  0.9330986E-01  0.0000000E+00
    1       -6.041391   1.000000
    2        4.956348   1.000000
    3        5.271051   1.000000
    4        5.271051   1.000000
    5        7.958874   0.000000
    6        9.022552   0.000000
    7        9.022552   0.000000
    8        9.874364   0.000000
 
  0.9507043E-01  0.0000000E+00  0.9507043E-01  0.0000000E+00
    1       -6.035579   1.000000
    2        4.930159   1.000000
    3        5.255222   1.000000
    4        5.255222   1.000000
    5        7.947181   0.000000
    6        9.045427   0.000000
    7        9.045427   0.000000
    8        9.893701   0.000000
 
  0.9683099E-01  0.0000000E+00  0.9683099E-01  0.0000000E+00
    1       -6.029659   1.000000
    2        4.903778   1.000000
    3        5.239314   1.000000
    4        5.239314   1.000000
    5        7.935377   0.000000
    6        9.068510   0.000000
    7        9.068510   0.000000
    8        9.912747   0.000000
 
  0.9859155E-01  0.0000000E+00  0.9859155E-01  0.0000000E+00
    1       -6.023630   1.000000
    2        4.877209   1.000000
    3        5.223333   1.000000
    4        5.223333   1.000000
    5        7.923465   0.000000
    6        9.091794   0.000000
    7        9.091794   0.000000
    8        9.931466   0.000000
 
  0.1003521E+00  0.0000000E+00  0.1003521E+00  0.0000000E+00
    1       -6.017494   1.000000
    2        4.850460   1.000000
    3        5.207283   1.000000
    4        5.207283   1.000000
    5        7.911449   0.000000
    6        9.115275   0.000000
    7        9.115275   0.000000
    8        9.949820   0.000000
 
  0.1021127E+00  0.0000000E+00  0.1021127E+00  0.0000000E+00
    1       -6.011250   1.000000
    2        4.823537   1.000000
    3        5.191170   1.000000
    4        5.191170   1.000000
    5        7.899333   0.000000
    6        9.138948   0.000000
    7        9.138948   0.000000
    8        9.967769   0.000000
 
  0.1038733E+00  0.0000000E+00  0.1038733E+00  0.0000000E+00
    1       -6.004899   1.000000
    2        4.796446   1.000000
    3        5.174997   1.000000
    4        5.174997   1.000000
    5        7.887122   0.000000
    6        9.162808   0.000000
    7        9.162808   0.000000
    8        9.985272   0.000000
 
  0.1056338E+00  0.0000000E+00  0.1056338E+00  0.0000000E+00
    1       -5.998439   1.000000
    2        4.769193   1.000000
    3        5.158770   1.000000
    4        5.158771   1.000000
    5        7.874819   0.000000
    6        9.186850   0.000000
    7        9.186850   0.000000
    8       10.002287   0.000000
 
  0.1073944E+00  0.0000000E+00  0.1073944E+00  0.0000000E+00
    1       -5.991872   1.000000
    2        4.741783   1.000000
    3        5.142494   1.000000
    4        5.142494   1.000000
    5        7.862427   0.000000
    6        9.211069   0.000000
    7        9.211070   0.000000
    8       10.018770   0.000000
 
  0.1091549E+00  0.0000000E+00  0.1091549E+00  0.0000000E+00
    1       -5.985197   1.000000
    2        4.714222   1.000000
    3        5.126171   1.000000
    4        5.126171   1.000000
    5        7.849952   0.000000
    6        9.235462   0.000000
    7        9.235462   0.000000
    8       10.034678   0.000000
 
  0.1109155E+00  0.0000000E+00  0.1109155E+00  0.0000000E+00
    1       -5.978414   1.000000
    2        4.686515   1.000000
    3        5.109807   1.000000
    4        5.109807   1.000000
    5        7.837396   0.000000
    6        9.260024   0.000000
    7        9.260024   0.000000
    8       10.049965   0.000000
 
  0.1126761E+00  0.0000000E+00  0.1126761E+00  0.0000000E+00
    1       -5.971524   1.000000
    2        4.658667   1.000000
    3        5.093405   1.000000
    4        5.093405   1.000000
    5        7.824763   0.000000
    6        9.284750   0.000000
    7        9.284750   0.000000
    8       10.064586   0.000000
 
  0.1144366E+00  0.0000000E+00  0.1144366E+00  0.0000000E+00
    1       -5.964526   1.000000
    2        4.630682   1.000000
    3        5.076969   1.000000
    4        5.076969   1.000000
    5        7.812057   0.000000
    6        9.309637   0.000000
    7        9.309638   0.000000
    8       10.078492   0.000000
 
  0.1161972E+00  0.0000000E+00  0.1161972E+00  0.0000000E+00
    1       -5.957421   1.000000
    2        4.602566   1.000000
    3        5.060504   1.000000
    4        5.060504   1.000000
    5        7.799281   0.000000
    6        9.334682   0.000000
    7        9.334682   0.000000
    8       10.091639   0.000000
 
  0.1179578E+00  0.0000000E+00  0.1179578E+00  0.0000000E+00
    1       -5.950208   1.000000
    2        4.574322   1.000000
    3        5.044011   1.000000
    4        5.044011   1.000000
    5        7.786439   0.000000
    6        9.359879   0.000000
    7        9.359879   0.000000
    8       10.103980   0.000000
 
  0.1197183E+00  0.0000000E+00  0.1197183E+00  0.0000000E+00
    1       -5.942888   1.000000
    2        4.545956   1.000000
    3        5.027496   1.000000
    4        5.027496   1.000000
    5        7.773535   0.000000
    6        9.385225   0.000000
    7        9.385225   0.000000
    8       10.115467   0.000000
 
  0.1214789E+00  0.0000000E+00  0.1214789E+00  0.0000000E+00
    1       -5.935461   1.000000
    2        4.517471   1.000000
    3        5.010961   1.000000
    4        5.010961   1.000000
    5        7.760572   0.000000
    6        9.410717   0.000000
    7        9.410717   0.000000
    8       10.126055   0.000000
 
  0.1232394E+00  0.0000000E+00  0.1232394E+00  0.0000000E+00
    1       -5.927926   1.000000
    2        4.488871   1.000000
    3        4.994410   1.000000
    4        4.994410   1.000000
    5        7.747553   0.000000
    6        9.436352   0.000000
    7        9.436352   0.000000
    8       10.135701   0.000000
 
  0.1250000E+00  0.0000000E+00  0.1250000E+00  0.0000000E+00
    1       -5.920279   1.000000
    2        4.460161   1.000000
    3        4.977847   1.000000
    4        4.977847   1.000000
    5        7.734481   0.000000
    6        9.462127   0.000000
    7        9.462127   0.000000
    8       10.144363   0.000000
 
  0.1267606E+00  0.0000000E+00  0.1267606E+00  0.0000000E+00
    1       -5.912530   1.000000
    2        4.431344   1.000000
    3        4.961273   1.000000
    4        4.961273   1.000000
    5        7.721360   0.000000
    6        9.488036   0.000000
    7        9.488036   0.000000
    8       10.151997   0.000000
 
  0.1285211E+00  0.0000000E+00  0.1285211E+00  0.0000000E+00
    1       -5.904674   1.000000
    2        4.402423   1.000000
    3        4.944691   1.000000
    4        4.944691   1.000000
    5        7.708193   0.000000
    6        9.514077   0.000000
    7        9.514077   0.000000
    8       10.158566   0.000000
 
  0.1302817E+00  0.0000000E+00  0.1302817E+00  0.0000000E+00
    1       -5.896710   1.000000
    2        4.373402   1.000000
    3        4.928105   1.000000
    4        4.928105   1.000000
    5        7.694983   0.000000
    6        9.540248   0.000000
    7        9.540248   0.000000
    8       10.164038   0.000000
 
  0.1320423E+00  0.0000000E+00  0.1320423E+00  0.0000000E+00
    1       -5.888640   1.000000
    2        4.344285   1.000000
    3        4.911517   1.000000
    4        4.911517   1.000000
    5        7.681734   0.000000
    6        9.566546   0.000000
    7        9.566546   0.000000
    8       10.168381   0.000000
 