       N       E                     dE             d eps       ncg     rms          rms(c)
DAV:   1     0.670719729280E+01    0.67072E+01   -0.31766E+03  4792   0.747E+02
DAV:   2    -0.109593849987E+02   -0.17667E+02   -0.17518E+02  7768   0.812E+01
DAV:   3    -0.111763935842E+02   -0.21701E+00   -0.21701E+00  6432   0.116E+01
DAV:   4    -0.111774355225E+02   -0.10419E-02   -0.10419E-02  7592   0.920E-01
DAV:   5    -0.111774364175E+02   -0.89496E-06   -0.89496E-06  6400   0.247E-02
DAV:   6    -0.111774364234E+02   -0.58851E-08   -0.58851E-08  7680   0.127E-03
   1 F= -.11177436E+02 E0= -.11177436E+02  d E =-.111774E+02
