 vasp.5.4.1 24Jun15 (build Nov 25 2015 16:01:35) complex                        
  
 executed on         CrayXC-Intel date 2016.09.07  14:13:42
 running on   96 total cores
 distrk:  each k-point on   24 cores,    4 groups
 distr:  one band on NCORES_PER_BAND=   6 cores,    4 groups


--------------------------------------------------------------------------------------------------------


 INCAR:
 POTCAR:    PAW_PBE Si 05Jan2001                  

 ----------------------------------------------------------------------------- 
|                                                                             |
|           W    W    AA    RRRRR   N    N  II  N    N   GGGG   !!!           |
|           W    W   A  A   R    R  NN   N  II  NN   N  G    G  !!!           |
|           W    W  A    A  R    R  N N  N  II  N N  N  G       !!!           |
|           W WW W  AAAAAA  RRRRR   N  N N  II  N  N N  G  GGG   !            |
|           WW  WW  A    A  R   R   N   NN  II  N   NN  G    G                |
|           W    W  A    A  R    R  N    N  II  N    N   GGGG   !!!           |
|                                                                             |
|      You have enabled k-point parallelism (KPAR>1).                         |
|      This developmental code was originally  written by Paul Kent at ORNL,  |
|      and carefully double checked in Vienna.                                |
|      GW as well as linear response parallelism added by Martijn Marsman     |
|      and Georg Kresse.                                                      |
|      Carefully verify results versus KPAR=1.                                |
|      Report problems to Paul Kent and Vienna.                               |
|                                                                             |
 ----------------------------------------------------------------------------- 

 POTCAR:    PAW_PBE Si 05Jan2001                  
   VRHFIN =Si: s2p2                                                             
   LEXCH  = PE                                                                  
   EATOM  =   103.0669 eV,    7.5752 Ry                                         
                                                                                
   TITEL  = PAW_PBE Si 05Jan2001                                                
   LULTRA =        F    use ultrasoft PP ?                                      
   IUNSCR =        1    unscreen: 0-lin 1-nonlin 2-no                           
   RPACOR =    1.500    partial core radius                                     
   POMASS =   28.085; ZVAL   =    4.000    mass and valenz                      
   RCORE  =    1.900    outmost cutoff radius                                   
   RWIGS  =    2.480; RWIGS  =    1.312    wigner-seitz radius (au A)           
   ENMAX  =  245.345; ENMIN  =  184.009 eV                                      
   ICORE  =        2    local potential                                         
   LCOR   =        T    correct aug charges                                     
   LPAW   =        T    paw PP                                                  
   EAUG   =  322.069                                                            
   DEXC   =    0.000                                                            
   RMAX   =    1.950    core radius for proj-oper                               
   RAUG   =    1.300    factor for augmentation sphere                          
   RDEP   =    1.993    radius for radial grids                                 
   RDEPT  =    1.837    core radius for aug-charge                              
                                                                                
   Atomic configuration                                                         
    6 entries                                                                   
     n  l   j            E        occ.                                          
     1  0  0.50     -1785.8828   2.0000                                         
     2  0  0.50      -139.4969   2.0000                                         
     2  1  1.50       -95.5546   6.0000                                         
     3  0  0.50       -10.8127   2.0000                                         
     3  1  0.50        -4.0811   2.0000                                         
     3  2  1.50        -4.0817   0.0000                                         
   Description                                                                  
     l       E           TYP  RCUT    TYP  RCUT                                 
     0    -10.8127223     23  1.900                                             
     0     -7.6451159     23  1.900                                             
     1     -4.0811372     23  1.900                                             
     1      2.4879257     23  1.900                                             
     2     -4.0817478      7  1.900                                             
  local pseudopotential read in
  partial core-charges read in
  partial kinetic energy density read in
  atomic valenz-charges read in
  non local Contribution for L=           0  read in
    real space projection operators read in
  non local Contribution for L=           0  read in
    real space projection operators read in
  non local Contribution for L=           1  read in
    real space projection operators read in
  non local Contribution for L=           1  read in
    real space projection operators read in
    PAW grid and wavefunctions read in
 
   number of l-projection  operators is LMAX  =           4
   number of lm-projection operators is LMMAX =           8
 

 ----------------------------------------------------------------------------- 
|                                                                             |
|  ADVICE TO THIS USER RUNNING 'VASP/VAMP'   (HEAR YOUR MASTER'S VOICE ...):  |
|                                                                             |
|      You enforced a specific xc-type in the INCAR file,                     |
|      a different type was found on the POTCAR file                          |
|          I HOPE YOU KNOW, WHAT YOU ARE  DOING                               |
|                                                                             |
 ----------------------------------------------------------------------------- 

  PAW_PBE Si 05Jan2001                  :
 energy of atom  1       EATOM= -103.0669
 kinetic energy error for atom=    0.0006 (will be added to EATOM!!)
 
 
 POSCAR: Si (Madelung Handbook, 295.7K)          
  positions in direct lattice
  velocities in cartesian coordinates
 exchange correlation table for  LEXCH =       14
   RHO(1)=    0.500       N(1)  =     2000
   RHO(2)=  100.500       N(2)  =     4000
 


--------------------------------------------------------------------------------------------------------


 ion  position               nearest neighbor table
   1  0.000  0.000  0.000-   2 2.35   2 2.35   2 2.35   2 2.35
   2  0.250  0.250  0.250-   1 2.35   1 2.35   1 2.35   1 2.35
 
  LATTYP: Found a face centered cubic cell.
 ALAT       =     5.4310000000
  
  Lattice vectors:
  
 A1 = (   2.7155000000,   2.7155000000,   0.0000000000)
 A2 = (   2.7155000000,   0.0000000000,  -2.7155000000)
 A3 = (   0.0000000000,   2.7155000000,  -2.7155000000)


Analysis of symmetry for initial positions (statically):
=====================================================================
 Subroutine PRICEL returns:
 Original cell was already a primitive cell.
 

 Routine SETGRP: Setting up the symmetry group for a 
 face centered cubic supercell.


 Subroutine GETGRP returns: Found 48 space group operations
 (whereof 24 operations were pure point group operations)
 out of a pool of 48 trial point group operations.


The static configuration has the point symmetry T_d .
 The point group associated with its full space group is O_h .


Analysis of symmetry for dynamics (positions and initial velocities):
=====================================================================
 Subroutine PRICEL returns:
 Original cell was already a primitive cell.
 

 Routine SETGRP: Setting up the symmetry group for a 
 face centered cubic supercell.


 Subroutine GETGRP returns: Found 48 space group operations
 (whereof 24 operations were pure point group operations)
 out of a pool of 48 trial point group operations.


The dynamic configuration has the point symmetry T_d .
 The point group associated with its full space group is O_h .


 Subroutine INISYM returns: Found 48 space group operations
 (whereof 24 operations are pure point group operations),
 and found     1 'primitive' translations

 
 
 KPOINTS: Automatically generated mesh: SCF=15, 0.
  k-points in reciprocal lattice
Space group operators:
 irot       det(A)        alpha          n_x          n_y          n_z        tau_x        tau_y        tau_z
    1     1.000000     0.000001     1.000000     0.000000     0.000000     0.000000     0.000000     0.000000
    2     1.000000   120.000000    -0.577350    -0.577350     0.577350     0.000000     0.000000     0.000000
    3     1.000000   120.000000     0.577350     0.577350    -0.577350     0.000000     0.000000     0.000000
    4    -1.000000    90.000000    -1.000000     0.000000     0.000000     0.000000     0.000000     0.000000
    5    -1.000000   180.000000     0.707107     0.707107     0.000000     0.000000     0.000000     0.000000
    6    -1.000000    90.000000     0.000000     1.000000     0.000000     0.000000     0.000000     0.000000
    7     1.000000   180.000000     1.000000     0.000000     0.000000     0.000000     0.000000     0.000000
    8     1.000000   120.000000     0.577350     0.577350     0.577350     0.000000     0.000000     0.000000
    9     1.000000   120.000000    -0.577350     0.577350     0.577350     0.000000     0.000000     0.000000
   10    -1.000000    90.000000     1.000000     0.000000     0.000000     0.000000     0.000000     0.000000
   11    -1.000000    90.000000     0.000000     0.000000     1.000000     0.000000     0.000000     0.000000
   12    -1.000000   180.000000     0.707107     0.000000    -0.707107     0.000000     0.000000     0.000000
   13     1.000000   120.000000     0.577350    -0.577350    -0.577350     0.000000     0.000000     0.000000
   14     1.000000   120.000000     0.577350    -0.577350     0.577350     0.000000     0.000000     0.000000
   15     1.000000   180.000000     0.000000     0.000000     1.000000     0.000000     0.000000     0.000000
   16    -1.000000    90.000000     0.000000    -1.000000     0.000000     0.000000     0.000000     0.000000
   17    -1.000000   180.000000     0.000000    -0.707107     0.707107     0.000000     0.000000     0.000000
   18    -1.000000    90.000000     0.000000     0.000000    -1.000000     0.000000     0.000000     0.000000
   19     1.000000   120.000000    -0.577350    -0.577350    -0.577350     0.000000     0.000000     0.000000
   20     1.000000   180.000000     0.000000     1.000000     0.000000     0.000000     0.000000     0.000000
   21     1.000000   120.000000    -0.577350     0.577350    -0.577350     0.000000     0.000000     0.000000
   22    -1.000000   180.000000     0.707107    -0.707107     0.000000     0.000000     0.000000     0.000000
   23    -1.000000   180.000000     0.000000     0.707107     0.707107     0.000000     0.000000     0.000000
   24    -1.000000   180.000000     0.707107     0.000000     0.707107     0.000000     0.000000     0.000000
   25    -1.000000     0.000001     1.000000     0.000000     0.000000     0.250000     0.250000     0.250000
   26    -1.000000   120.000000    -0.577350    -0.577350     0.577350     0.250000     0.250000     0.250000
   27    -1.000000   120.000000     0.577350     0.577350    -0.577350     0.250000     0.250000     0.250000
   28     1.000000    90.000000    -1.000000     0.000000     0.000000     0.250000     0.250000     0.250000
   29     1.000000   180.000000     0.707107     0.707107     0.000000     0.250000     0.250000     0.250000
   30     1.000000    90.000000     0.000000     1.000000     0.000000     0.250000     0.250000     0.250000
   31    -1.000000   180.000000     1.000000     0.000000     0.000000     0.250000     0.250000     0.250000
   32    -1.000000   120.000000     0.577350     0.577350     0.577350     0.250000     0.250000     0.250000
   33    -1.000000   120.000000    -0.577350     0.577350     0.577350     0.250000     0.250000     0.250000
   34     1.000000    90.000000     1.000000     0.000000     0.000000     0.250000     0.250000     0.250000
   35     1.000000    90.000000     0.000000     0.000000     1.000000     0.250000     0.250000     0.250000
   36     1.000000   180.000000     0.707107     0.000000    -0.707107     0.250000     0.250000     0.250000
   37    -1.000000   120.000000     0.577350    -0.577350    -0.577350     0.250000     0.250000     0.250000
   38    -1.000000   120.000000     0.577350    -0.577350     0.577350     0.250000     0.250000     0.250000
   39    -1.000000   180.000000     0.000000     0.000000     1.000000     0.250000     0.250000     0.250000
   40     1.000000    90.000000     0.000000    -1.000000     0.000000     0.250000     0.250000     0.250000
   41     1.000000   180.000000     0.000000    -0.707107     0.707107     0.250000     0.250000     0.250000
   42     1.000000    90.000000     0.000000     0.000000    -1.000000     0.250000     0.250000     0.250000
   43    -1.000000   120.000000    -0.577350    -0.577350    -0.577350     0.250000     0.250000     0.250000
   44    -1.000000   180.000000     0.000000     1.000000     0.000000     0.250000     0.250000     0.250000
   45    -1.000000   120.000000    -0.577350     0.577350    -0.577350     0.250000     0.250000     0.250000
   46     1.000000   180.000000     0.707107    -0.707107     0.000000     0.250000     0.250000     0.250000
   47     1.000000   180.000000     0.000000     0.707107     0.707107     0.250000     0.250000     0.250000
   48     1.000000   180.000000     0.707107     0.000000     0.707107     0.250000     0.250000     0.250000


--------------------------------------------------------------------------------------------------------




 Dimension of arrays:
   k-points           NKPTS =    299   k-points in BZ     NKDIM =    299   number of bands    NBANDS=      8
   number of dos      NEDOS =    301   number of ions     NIONS =      2
   non local maximal  LDIM  =      4   non local SUM 2l+1 LMDIM =      8
   total plane-waves  NPLWV =  21952
   max r-space proj   IRMAX =      1   max aug-charges    IRDMAX=  18525
   dimension x,y,z NGX =    28 NGY =   28 NGZ =   28
   dimension x,y,z NGXF=    56 NGYF=   56 NGZF=   56
   support grid    NGXF=    56 NGYF=   56 NGZF=   56
   ions per type =               2
 NGX,Y,Z   is equivalent  to a cutoff of  12.12, 12.12, 12.12 a.u.
 NGXF,Y,Z  is equivalent  to a cutoff of  24.24, 24.24, 24.24 a.u.


 I would recommend the setting:
   dimension x,y,z NGX =    28 NGY =   28 NGZ =   28
 SYSTEM =  Name                                    
 POSCAR =  Si (Madelung Handbook, 295.7K)          

 Startparameter for this run:
   NWRITE =      2    write-flag & timer
   PREC   = accura    normal or accurate (medium, high low for compatibility)
   ISTART =      0    job   : 0-new  1-cont  2-samecut
   ICHARG =     11    charge: 1-file 2-atom 10-const
   ISPIN  =      1    spin polarized calculation?
   LNONCOLLINEAR =      F non collinear calculations
   LSORBIT =      F    spin-orbit coupling
   INIWAV =      1    electr: 0-lowe 1-rand  2-diag
   LASPH  =      F    aspherical Exc in radial PAW
   METAGGA=      F    non-selfconsistent MetaGGA calc.

 Electronic Relaxation 1
   ENCUT  =  500.0 eV  36.75 Ry    6.06 a.u.   7.00  7.00  7.00*2*pi/ulx,y,z
   ENINI  =  500.0     initial cutoff
   ENAUG  =  322.1 eV  augmentation charge cutoff
   NELM   =     60;   NELMIN=  2; NELMDL=  0     # of ELM steps 
   EDIFF  = 0.1E-05   stopping-criterion for ELM
   LREAL  =      F    real-space projection
   NLSPLINE    = F    spline interpolate recip. space projectors
   LCOMPAT=      F    compatible to vasp.4.4
   GGA_COMPAT  = T    GGA compatible to vasp.4.4-vasp.4.6
   LMAXPAW     = -100 max onsite density
   LMAXMIX     =    2 max onsite mixed and CHGCAR
   VOSKOWN=      0    Vosko Wilk Nusair interpolation
   ROPT   =    0.00000
 Ionic relaxation
   EDIFFG = -.5E-02   stopping-criterion for IOM
   NSW    =      1    number of steps for IOM
   NBLOCK =      1;   KBLOCK =      1    inner block; outer block 
   IBRION =      2    ionic relax: 0-MD 1-quasi-New 2-CG
   NFREE  =      1    steps in history (QN), initial steepest desc. (CG)
   ISIF   =      3    stress and relaxation
   IWAVPR =     11    prediction:  0-non 1-charg 2-wave 3-comb
   ISYM   =      2    0-nonsym 1-usesym 2-fastsym
   LCORR  =      T    Harris-Foulkes like correction to forces

   POTIM  = 0.5000    time-step for ionic-motion
   TEIN   =    0.0    initial temperature
   TEBEG  =    0.0;   TEEND  =   0.0 temperature during run
   SMASS  =  -3.00    Nose mass-parameter (am)
   estimated Nose-frequenzy (Omega)   =  0.10E-29 period in steps =****** mass=  -0.337E-27a.u.
   SCALEE = 1.0000    scale energy and forces
   NPACO  =    256;   APACO  = 16.0  distance and # of slots for P.C.
   PSTRESS=    0.0 pullay stress

  Mass of Ions in am
   POMASS =  28.09
  Ionic Valenz
   ZVAL   =   4.00
  Atomic Wigner-Seitz radii
   RWIGS  =  -1.00
  virtual crystal weights 
   VCA    =   1.00
   NELECT =       8.0000    total number of electrons
   NUPDOWN=      -1.0000    fix difference up-down

 DOS related values:
   EMIN   =  10.00;   EMAX   =-10.00  energy-range for DOS
   EFERMI =   0.00
   ISMEAR =     0;   SIGMA  =   0.01  broadening in eV -4-tet -1-fermi 0-gaus

 Electronic relaxation 2 (details)
   IALGO  =     38    algorithm
   LDIAG  =      T    sub-space diagonalisation (order eigenvalues)
   LSUBROT=      F    optimize rotation matrix (better conditioning)
   TURBO    =      0    0=normal 1=particle mesh
   IRESTART =      0    0=no restart 2=restart with 2 vectors
   NREBOOT  =      0    no. of reboots
   NMIN     =      0    reboot dimension
   EREF     =   0.00    reference energy to select bands
   IMIX   =      4    mixing-type and parameters
     AMIX     =   0.40;   BMIX     =  1.00
     AMIX_MAG =   1.60;   BMIX_MAG =  1.00
     AMIN     =   0.01
     WC   =   100.;   INIMIX=   1;  MIXPRE=   1;  MAXMIX= -45

 Intra band minimization:
   WEIMIN = 0.0010     energy-eigenvalue tresh-hold
   EBREAK =  0.31E-07  absolut break condition
   DEPER  =   0.30     relativ break condition  

   TIME   =   0.40     timestep for ELM

  volume/ion in A,a.u.               =      20.02       135.13
  Fermi-wavevector in a.u.,A,eV,Ry     =   0.956999  1.808467 12.460868  0.915848
  Thomas-Fermi vector in A             =   2.085978
 
 Write flags
   LWAVE  =      T    write WAVECAR
   LCHARG =      T    write CHGCAR
   LVTOT  =      F    write LOCPOT, total local potential
   LVHAR  =      F    write LOCPOT, Hartree potential only
   LELF   =      F    write electronic localiz. function (ELF)
   LORBIT =     10    0 simple, 1 ext, 2 COOP (PROOUT)


 Dipole corrections
   LMONO  =      F    monopole corrections only (constant potential shift)
   LDIPOL =      F    correct potential (dipole corrections)
   IDIPOL =      0    1-x, 2-y, 3-z, 4-all directions 
   EPSILON=  1.0000000 bulk dielectric constant

 Core level calculations are selected ICORELEVEL =  1
 Exchange correlation treatment:
   GGA     =    PS    GGA type
   LEXCH   =    14    internal setting for exchange type
   VOSKOWN=      0    Vosko Wilk Nusair interpolation
   LHFCALC =     F    Hartree Fock is set to
   LHFONE  =     F    Hartree Fock one center treatment
   AEXX    =    0.0000 exact exchange contribution

 Linear response parameters
   LEPSILON=     F    determine dielectric tensor
   LRPA    =     F    only Hartree local field effects (RPA)
   LNABLA  =     F    use nabla operator in PAW spheres
   LVEL    =     F    velocity operator in full k-point grid
   LINTERFAST=   F  fast interpolation
   KINTER  =     0    interpolate to denser k-point grid
   CSHIFT  =0.1000    complex shift for real part using Kramers Kronig
   OMEGAMAX=  -1.0    maximum frequency
   DEG_THRESHOLD= 0.2000000E-02 threshold for treating states as degnerate
   RTIME   =    0.100 relaxation time in fs

 Orbital magnetization related:
   ORBITALMAG=     F  switch on orbital magnetization
   LCHIMAG   =     F  perturbation theory with respect to B field
   DQ        =  0.001000  dq finite difference perturbation B field



--------------------------------------------------------------------------------------------------------


 conjugate gradient relaxation of ions
 charge density and potential remain constant during run
 non-spin polarized calculation
 Variant of blocked Davidson
 Davidson routine will perform the subspace rotation
 perform sub-space diagonalisation
    after iterative eigenvector-optimisation
 no mixing
 using additional bands            4
 reciprocal scheme for non local part
 use partial core corrections
 calculate Harris-corrections to forces 
   (improved forces if not selfconsistent)
 use gradient corrections 
 WARNING: stress and forces are not correct
  (second derivative of E(xc) not defined)
 use of overlap-Matrix (Vanderbilt PP)
 Gauss-broadening in eV      SIGMA  =   0.01


--------------------------------------------------------------------------------------------------------


  energy-cutoff  :      500.00
  volume of cell :       40.05
      direct lattice vectors                 reciprocal lattice vectors
     2.715500000  2.715500000  0.000000000     0.184128153  0.184128153  0.184128153
     2.715500000  0.000000000 -2.715500000     0.184128153 -0.184128153 -0.184128153
     0.000000000  2.715500000 -2.715500000    -0.184128153  0.184128153 -0.184128153

  length of vectors
     3.840296929  3.840296929  3.840296929     0.318919316  0.318919316  0.318919316


 
 k-points in units of 2pi/SCALE and weight: Automatically generated mesh: SCF=15, 0.
   0.00000000  0.00000000  0.00000000       0.005
   0.16666667  0.16666667  0.16666667       0.039
   0.33333333  0.33333333  0.33333333       0.039
   0.50000000  0.50000000  0.50000000       0.020
   0.33333333  0.00000000  0.00000000       0.029
   0.50000000  0.16666667  0.16666667       0.118
   0.66666667  0.33333333  0.33333333       0.118
  -0.16666667 -0.50000000 -0.50000000       0.118
   0.00000000 -0.33333333 -0.33333333       0.059
   0.66666667  0.00000000  0.00000000       0.029
   0.83333333  0.16666667  0.16666667       0.118
   0.00000000 -0.66666667 -0.66666667       0.059
   1.00000000  0.00000000  0.00000000       0.015
   0.66666667  0.33333333  0.00000000       0.118
  -0.16666667 -0.50000000 -0.83333333       0.118
   0.00000000  0.00000000  0.00000000       0.000
   0.00000000  0.00352112  0.00000000       0.000
   0.00000000  0.00704226  0.00000000       0.000
   0.00000000  0.01056338  0.00000000       0.000
   0.00000000  0.01408450  0.00000000       0.000
   0.00000000  0.01760564  0.00000000       0.000
   0.00000000  0.02112676  0.00000000       0.000
   0.00000000  0.02464788  0.00000000       0.000
   0.00000000  0.02816902  0.00000000       0.000
   0.00000000  0.03169014  0.00000000       0.000
   0.00000000  0.03521126  0.00000000       0.000
   0.00000000  0.03873240  0.00000000       0.000
   0.00000000  0.04225352  0.00000000       0.000
   0.00000000  0.04577464  0.00000000       0.000
   0.00000000  0.04929578  0.00000000       0.000
   0.00000000  0.05281690  0.00000000       0.000
   0.00000000  0.05633804  0.00000000       0.000
   0.00000000  0.05985916  0.00000000       0.000
   0.00000000  0.06338028  0.00000000       0.000
   0.00000000  0.06690140  0.00000000       0.000
   0.00000000  0.07042254  0.00000000       0.000
   0.00000000  0.07394366  0.00000000       0.000
   0.00000000  0.07746478  0.00000000       0.000
   0.00000000  0.08098592  0.00000000       0.000
   0.00000000  0.08450704  0.00000000       0.000
   0.00000000  0.08802818  0.00000000       0.000
   0.00000000  0.09154930  0.00000000       0.000
   0.00000000  0.09507042  0.00000000       0.000
   0.00000000  0.09859156  0.00000000       0.000
   0.00000000  0.10211268  0.00000000       0.000
   0.00000000  0.10563382  0.00000000       0.000
   0.00000000  0.10915494  0.00000000       0.000
   0.00000000  0.11267606  0.00000000       0.000
   0.00000000  0.11619720  0.00000000       0.000
   0.00000000  0.11971832  0.00000000       0.000
   0.00000000  0.12323944  0.00000000       0.000
   0.00000000  0.12676058  0.00000000       0.000
   0.00000000  0.13028170  0.00000000       0.000
   0.00000000  0.13380282  0.00000000       0.000
   0.00000000  0.13732394  0.00000000       0.000
   0.00000000  0.14084508  0.00000000       0.000
   0.00000000  0.14436620  0.00000000       0.000
   0.00000000  0.14788734  0.00000000       0.000
   0.00000000  0.15140846  0.00000000       0.000
   0.00000000  0.15492958  0.00000000       0.000
   0.00000000  0.15845070  0.00000000       0.000
   0.00000000  0.16197184  0.00000000       0.000
   0.00000000  0.16549296  0.00000000       0.000
   0.00000000  0.16901410  0.00000000       0.000
   0.00000000  0.17253522  0.00000000       0.000
   0.00000000  0.17605634  0.00000000       0.000
   0.00000000  0.17957748  0.00000000       0.000
   0.00000000  0.18309860  0.00000000       0.000
   0.00000000  0.18661972  0.00000000       0.000
   0.00000000  0.19014086  0.00000000       0.000
   0.00000000  0.19366198  0.00000000       0.000
   0.00000000  0.19718310  0.00000000       0.000
   0.00000000  0.20070422  0.00000000       0.000
   0.00000000  0.20422536  0.00000000       0.000
   0.00000000  0.20774650  0.00000000       0.000
   0.00000000  0.21126762  0.00000000       0.000
   0.00000000  0.21478874  0.00000000       0.000
   0.00000000  0.21830986  0.00000000       0.000
   0.00000000  0.22183100  0.00000000       0.000
   0.00000000  0.22535212  0.00000000       0.000
   0.00000000  0.22887324  0.00000000       0.000
   0.00000000  0.23239438  0.00000000       0.000
   0.00000000  0.23591552  0.00000000       0.000
   0.00000000  0.23943662  0.00000000       0.000
   0.00000000  0.24295774  0.00000000       0.000
   0.00000000  0.24647888  0.00000000       0.000
   0.00000000  0.25000002  0.00000000       0.000
   0.00000000  0.25352114  0.00000000       0.000
   0.00000000  0.25704226  0.00000000       0.000
   0.00000000  0.26056340  0.00000000       0.000
   0.00000000  0.26408452  0.00000000       0.000
   0.00000000  0.26760564  0.00000000       0.000
   0.00000000  0.27112674  0.00000000       0.000
   0.00000000  0.27464790  0.00000000       0.000
   0.00000000  0.27816904  0.00000000       0.000
   0.00000000  0.28169016  0.00000000       0.000
   0.00000000  0.28521126  0.00000000       0.000
   0.00000000  0.28873240  0.00000000       0.000
   0.00000000  0.29225356  0.00000000       0.000
   0.00000000  0.29577466  0.00000000       0.000
   0.00000000  0.29929578  0.00000000       0.000
   0.00000000  0.30281692  0.00000000       0.000
   0.00000000  0.30633804  0.00000000       0.000
   0.00000000  0.30985916  0.00000000       0.000
   0.00000000  0.31338028  0.00000000       0.000
   0.00000000  0.31690142  0.00000000       0.000
   0.00000000  0.32042256  0.00000000       0.000
   0.00000000  0.32394368  0.00000000       0.000
   0.00000000  0.32746478  0.00000000       0.000
   0.00000000  0.33098594  0.00000000       0.000
   0.00000000  0.33450708  0.00000000       0.000
   0.00000000  0.33802820  0.00000000       0.000
   0.00000000  0.34154930  0.00000000       0.000
   0.00000000  0.34507046  0.00000000       0.000
   0.00000000  0.34859156  0.00000000       0.000
   0.00000000  0.35211268  0.00000000       0.000
   0.00000000  0.35563380  0.00000000       0.000
   0.00000000  0.35915496  0.00000000       0.000
   0.00000000  0.36267608  0.00000000       0.000
   0.00000000  0.36619720  0.00000000       0.000
   0.00000000  0.36971832  0.00000000       0.000
   0.00000000  0.37323942  0.00000000       0.000
   0.00000000  0.37676060  0.00000000       0.000
   0.00000000  0.38028172  0.00000000       0.000
   0.00000000  0.38380284  0.00000000       0.000
   0.00000000  0.38732398  0.00000000       0.000
   0.00000000  0.39084510  0.00000000       0.000
   0.00000000  0.39436620  0.00000000       0.000
   0.00000000  0.39788732  0.00000000       0.000
   0.00000000  0.40140844  0.00000000       0.000
   0.00000000  0.40492960  0.00000000       0.000
   0.00000000  0.40845072  0.00000000       0.000
   0.00000000  0.41197184  0.00000000       0.000
   0.00000000  0.41549298  0.00000000       0.000
   0.00000000  0.41901412  0.00000000       0.000
   0.00000000  0.42253524  0.00000000       0.000
   0.00000000  0.42605636  0.00000000       0.000
   0.00000000  0.42957746  0.00000000       0.000
   0.00000000  0.43309862  0.00000000       0.000
   0.00000000  0.43661972  0.00000000       0.000
   0.00000000  0.44014084  0.00000000       0.000
   0.00000000  0.44366202  0.00000000       0.000
   0.00000000  0.44718314  0.00000000       0.000
   0.00000000  0.45070424  0.00000000       0.000
   0.00000000  0.45422536  0.00000000       0.000
   0.00000000  0.45774648  0.00000000       0.000
   0.00000000  0.46126766  0.00000000       0.000
   0.00000000  0.46478876  0.00000000       0.000
   0.00000000  0.46830988  0.00000000       0.000
   0.00000000  0.47183102  0.00000000       0.000
   0.00000000  0.47535214  0.00000000       0.000
   0.00000000  0.47887326  0.00000000       0.000
   0.00000000  0.48239436  0.00000000       0.000
   0.00000000  0.48591548  0.00000000       0.000
   0.00000000  0.48943666  0.00000000       0.000
   0.00000000  0.49295778  0.00000000       0.000
   0.00000000  0.49647888  0.00000000       0.000
   0.00000000  0.50000006  0.00000000       0.000
   0.00000000  0.50352114  0.00000000       0.000
   0.00000000  0.50704228  0.00000000       0.000
   0.00000000  0.51056338  0.00000000       0.000
   0.00000000  0.51408452  0.00000000       0.000
   0.00000000  0.51760566  0.00000000       0.000
   0.00000000  0.52112680  0.00000000       0.000
   0.00000000  0.52464790  0.00000000       0.000
   0.00000000  0.52816904  0.00000000       0.000
   0.00000000  0.53169018  0.00000000       0.000
   0.00000000  0.53521126  0.00000000       0.000
   0.00000000  0.53873240  0.00000000       0.000
   0.00000000  0.54225350  0.00000000       0.000
   0.00000000  0.54577470  0.00000000       0.000
   0.00000000  0.54929578  0.00000000       0.000
   0.00000000  0.55281692  0.00000000       0.000
   0.00000000  0.55633808  0.00000000       0.000
   0.00000000  0.55985922  0.00000000       0.000
   0.00000000  0.56338030  0.00000000       0.000
   0.00000000  0.56690144  0.00000000       0.000
   0.00000000  0.57042254  0.00000000       0.000
   0.00000000  0.57394368  0.00000000       0.000
   0.00000000  0.57746482  0.00000000       0.000
   0.00000000  0.58098590  0.00000000       0.000
   0.00000000  0.58450710  0.00000000       0.000
   0.00000000  0.58802820  0.00000000       0.000
   0.00000000  0.59154934  0.00000000       0.000
   0.00000000  0.59507042  0.00000000       0.000
   0.00000000  0.59859156  0.00000000       0.000
   0.00000000  0.60211272  0.00000000       0.000
   0.00000000  0.60563386  0.00000000       0.000
   0.00000000  0.60915494  0.00000000       0.000
   0.00000000  0.61267608  0.00000000       0.000
   0.00000000  0.61619722  0.00000000       0.000
   0.00000000  0.61971832  0.00000000       0.000
   0.00000000  0.62323946  0.00000000       0.000
   0.00000000  0.62676054  0.00000000       0.000
   0.00000000  0.63028174  0.00000000       0.000
   0.00000000  0.63380284  0.00000000       0.000
   0.00000000  0.63732398  0.00000000       0.000
   0.00000000  0.64084512  0.00000000       0.000
   0.00000000  0.64436626  0.00000000       0.000
   0.00000000  0.64788734  0.00000000       0.000
   0.00000000  0.65140850  0.00000000       0.000
   0.00000000  0.65492958  0.00000000       0.000
   0.00000000  0.65845072  0.00000000       0.000
   0.00000000  0.66197186  0.00000000       0.000
   0.00000000  0.66549296  0.00000000       0.000
   0.00000000  0.66901416  0.00000000       0.000
   0.00000000  0.67253524  0.00000000       0.000
   0.00000000  0.67605638  0.00000000       0.000
   0.00000000  0.67957746  0.00000000       0.000
   0.00000000  0.68309862  0.00000000       0.000
   0.00000000  0.68661976  0.00000000       0.000
   0.00000000  0.69014090  0.00000000       0.000
   0.00000000  0.69366198  0.00000000       0.000
   0.00000000  0.69718314  0.00000000       0.000
   0.00000000  0.70070428  0.00000000       0.000
   0.00000000  0.70422536  0.00000000       0.000
   0.00000000  0.70774650  0.00000000       0.000
   0.00000000  0.71126760  0.00000000       0.000
   0.00000000  0.71478874  0.00000000       0.000
   0.00000000  0.71830994  0.00000000       0.000
   0.00000000  0.72183102  0.00000000       0.000
   0.00000000  0.72535216  0.00000000       0.000
   0.00000000  0.72887326  0.00000000       0.000
   0.00000000  0.73239440  0.00000000       0.000
   0.00000000  0.73591554  0.00000000       0.000
   0.00000000  0.73943662  0.00000000       0.000
   0.00000000  0.74295778  0.00000000       0.000
   0.00000000  0.74647886  0.00000000       0.000
   0.00000000  0.75000006  0.00000000       0.000
   0.00000000  0.75352120  0.00000000       0.000
   0.00000000  0.75704228  0.00000000       0.000
   0.00000000  0.76056344  0.00000000       0.000
   0.00000000  0.76408452  0.00000000       0.000
   0.00000000  0.76760566  0.00000000       0.000
   0.00000000  0.77112674  0.00000000       0.000
   0.00000000  0.77464796  0.00000000       0.000
   0.00000000  0.77816910  0.00000000       0.000
   0.00000000  0.78169018  0.00000000       0.000
   0.00000000  0.78521132  0.00000000       0.000
   0.00000000  0.78873240  0.00000000       0.000
   0.00000000  0.79225356  0.00000000       0.000
   0.00000000  0.79577464  0.00000000       0.000
   0.00000000  0.79929578  0.00000000       0.000
   0.00000000  0.80281686  0.00000000       0.000
   0.00000000  0.80633808  0.00000000       0.000
   0.00000000  0.80985922  0.00000000       0.000
   0.00000000  0.81338030  0.00000000       0.000
   0.00000000  0.81690144  0.00000000       0.000
   0.00000000  0.82042254  0.00000000       0.000
   0.00000000  0.82394368  0.00000000       0.000
   0.00000000  0.82746482  0.00000000       0.000
   0.00000000  0.83098596  0.00000000       0.000
   0.00000000  0.83450710  0.00000000       0.000
   0.00000000  0.83802826  0.00000000       0.000
   0.00000000  0.84154934  0.00000000       0.000
   0.00000000  0.84507048  0.00000000       0.000
   0.00000000  0.84859156  0.00000000       0.000
   0.00000000  0.85211272  0.00000000       0.000
   0.00000000  0.85563380  0.00000000       0.000
   0.00000000  0.85915494  0.00000000       0.000
   0.00000000  0.86267614  0.00000000       0.000
   0.00000000  0.86619722  0.00000000       0.000
   0.00000000  0.86971838  0.00000000       0.000
   0.00000000  0.87323946  0.00000000       0.000
   0.00000000  0.87676060  0.00000000       0.000
   0.00000000  0.88028168  0.00000000       0.000
   0.00000000  0.88380284  0.00000000       0.000
   0.00000000  0.88732404  0.00000000       0.000
   0.00000000  0.89084512  0.00000000       0.000
   0.00000000  0.89436626  0.00000000       0.000
   0.00000000  0.89788734  0.00000000       0.000
   0.00000000  0.90140850  0.00000000       0.000
   0.00000000  0.90492958  0.00000000       0.000
   0.00000000  0.90845072  0.00000000       0.000
   0.00000000  0.91197186  0.00000000       0.000
   0.00000000  0.91549296  0.00000000       0.000
   0.00000000  0.91901416  0.00000000       0.000
   0.00000000  0.92253530  0.00000000       0.000
   0.00000000  0.92605638  0.00000000       0.000
   0.00000000  0.92957752  0.00000000       0.000
   0.00000000  0.93309862  0.00000000       0.000
   0.00000000  0.93661976  0.00000000       0.000
   0.00000000  0.94014084  0.00000000       0.000
   0.00000000  0.94366204  0.00000000       0.000
   0.00000000  0.94718320  0.00000000       0.000
   0.00000000  0.95070428  0.00000000       0.000
   0.00000000  0.95422542  0.00000000       0.000
   0.00000000  0.95774650  0.00000000       0.000
   0.00000000  0.96126766  0.00000000       0.000
   0.00000000  0.96478874  0.00000000       0.000
   0.00000000  0.96830988  0.00000000       0.000
   0.00000000  0.97183096  0.00000000       0.000
   0.00000000  0.97535216  0.00000000       0.000
   0.00000000  0.97887332  0.00000000       0.000
   0.00000000  0.98239440  0.00000000       0.000
   0.00000000  0.98591554  0.00000000       0.000
   0.00000000  0.98943662  0.00000000       0.000
   0.00000000  0.99295778  0.00000000       0.000
   0.00000000  0.99647886  0.00000000       0.000
 
 k-points in reciprocal lattice and weights: Automatically generated mesh: SCF=15, 0.
   0.00000000  0.00000000  0.00000000       0.005
   0.16666667  0.00000000  0.00000000       0.039
   0.33333333  0.00000000  0.00000000       0.039
   0.50000000  0.00000000  0.00000000       0.020
   0.16666667  0.16666667  0.00000000       0.029
   0.33333333  0.16666667  0.00000000       0.118
   0.50000000  0.16666667  0.00000000       0.118
  -0.33333333  0.16666667  0.00000000       0.118
  -0.16666667  0.16666667  0.00000000       0.059
   0.33333333  0.33333333  0.00000000       0.029
   0.50000000  0.33333333  0.00000000       0.118
  -0.33333333  0.33333333  0.00000000       0.059
   0.50000000  0.50000000  0.00000000       0.015
   0.50000000  0.33333333  0.16666667       0.118
  -0.33333333  0.33333333  0.16666667       0.118
   0.00000000  0.00000000  0.00000000       0.000
   0.00176056  0.00000000  0.00176056       0.000
   0.00352113  0.00000000  0.00352113       0.000
   0.00528169  0.00000000  0.00528169       0.000
   0.00704225  0.00000000  0.00704225       0.000
   0.00880282  0.00000000  0.00880282       0.000
   0.01056338  0.00000000  0.01056338       0.000
   0.01232394  0.00000000  0.01232394       0.000
   0.01408451  0.00000000  0.01408451       0.000
   0.01584507  0.00000000  0.01584507       0.000
   0.01760563  0.00000000  0.01760563       0.000
   0.01936620  0.00000000  0.01936620       0.000
   0.02112676  0.00000000  0.02112676       0.000
   0.02288732  0.00000000  0.02288732       0.000
   0.02464789  0.00000000  0.02464789       0.000
   0.02640845  0.00000000  0.02640845       0.000
   0.02816902  0.00000000  0.02816902       0.000
   0.02992958  0.00000000  0.02992958       0.000
   0.03169014  0.00000000  0.03169014       0.000
   0.03345070  0.00000000  0.03345070       0.000
   0.03521127  0.00000000  0.03521127       0.000
   0.03697183  0.00000000  0.03697183       0.000
   0.03873239  0.00000000  0.03873239       0.000
   0.04049296  0.00000000  0.04049296       0.000
   0.04225352  0.00000000  0.04225352       0.000
   0.04401409  0.00000000  0.04401409       0.000
   0.04577465  0.00000000  0.04577465       0.000
   0.04753521  0.00000000  0.04753521       0.000
   0.04929578  0.00000000  0.04929578       0.000
   0.05105634  0.00000000  0.05105634       0.000
   0.05281691  0.00000000  0.05281691       0.000
   0.05457747  0.00000000  0.05457747       0.000
   0.05633803  0.00000000  0.05633803       0.000
   0.05809860  0.00000000  0.05809860       0.000
   0.05985916  0.00000000  0.05985916       0.000
   0.06161972  0.00000000  0.06161972       0.000
   0.06338029  0.00000000  0.06338029       0.000
   0.06514085  0.00000000  0.06514085       0.000
   0.06690141  0.00000000  0.06690141       0.000
   0.06866197  0.00000000  0.06866197       0.000
   0.07042254  0.00000000  0.07042254       0.000
   0.07218310  0.00000000  0.07218310       0.000
   0.07394367  0.00000000  0.07394367       0.000
   0.07570423  0.00000000  0.07570423       0.000
   0.07746479  0.00000000  0.07746479       0.000
   0.07922535  0.00000000  0.07922535       0.000
   0.08098592  0.00000000  0.08098592       0.000
   0.08274648  0.00000000  0.08274648       0.000
   0.08450705  0.00000000  0.08450705       0.000
   0.08626761  0.00000000  0.08626761       0.000
   0.08802817  0.00000000  0.08802817       0.000
   0.08978874  0.00000000  0.08978874       0.000
   0.09154930  0.00000000  0.09154930       0.000
   0.09330986  0.00000000  0.09330986       0.000
   0.09507043  0.00000000  0.09507043       0.000
   0.09683099  0.00000000  0.09683099       0.000
   0.09859155  0.00000000  0.09859155       0.000
   0.10035211  0.00000000  0.10035211       0.000
   0.10211268  0.00000000  0.10211268       0.000
   0.10387325  0.00000000  0.10387325       0.000
   0.10563381  0.00000000  0.10563381       0.000
   0.10739437  0.00000000  0.10739437       0.000
   0.10915493  0.00000000  0.10915493       0.000
   0.11091550  0.00000000  0.11091550       0.000
   0.11267606  0.00000000  0.11267606       0.000
   0.11443662  0.00000000  0.11443662       0.000
   0.11619719  0.00000000  0.11619719       0.000
   0.11795776  0.00000000  0.11795776       0.000
   0.11971831  0.00000000  0.11971831       0.000
   0.12147887  0.00000000  0.12147887       0.000
   0.12323944  0.00000000  0.12323944       0.000
   0.12500001  0.00000000  0.12500001       0.000
   0.12676057  0.00000000  0.12676057       0.000
   0.12852113  0.00000000  0.12852113       0.000
   0.13028170  0.00000000  0.13028170       0.000
   0.13204226  0.00000000  0.13204226       0.000
   0.13380282  0.00000000  0.13380282       0.000
   0.13556337  0.00000000  0.13556337       0.000
   0.13732395  0.00000000  0.13732395       0.000
   0.13908452  0.00000000  0.13908452       0.000
   0.14084508  0.00000000  0.14084508       0.000
   0.14260563  0.00000000  0.14260563       0.000
   0.14436620  0.00000000  0.14436620       0.000
   0.14612678  0.00000000  0.14612678       0.000
   0.14788733  0.00000000  0.14788733       0.000
   0.14964789  0.00000000  0.14964789       0.000
   0.15140846  0.00000000  0.15140846       0.000
   0.15316902  0.00000000  0.15316902       0.000
   0.15492958  0.00000000  0.15492958       0.000
   0.15669014  0.00000000  0.15669014       0.000
   0.15845071  0.00000000  0.15845071       0.000
   0.16021128  0.00000000  0.16021128       0.000
   0.16197184  0.00000000  0.16197184       0.000
   0.16373239  0.00000000  0.16373239       0.000
   0.16549297  0.00000000  0.16549297       0.000
   0.16725354  0.00000000  0.16725354       0.000
   0.16901410  0.00000000  0.16901410       0.000
   0.17077465  0.00000000  0.17077465       0.000
   0.17253523  0.00000000  0.17253523       0.000
   0.17429578  0.00000000  0.17429578       0.000
   0.17605634  0.00000000  0.17605634       0.000
   0.17781690  0.00000000  0.17781690       0.000
   0.17957748  0.00000000  0.17957748       0.000
   0.18133804  0.00000000  0.18133804       0.000
   0.18309860  0.00000000  0.18309860       0.000
   0.18485916  0.00000000  0.18485916       0.000
   0.18661971  0.00000000  0.18661971       0.000
   0.18838030  0.00000000  0.18838030       0.000
   0.19014086  0.00000000  0.19014086       0.000
   0.19190142  0.00000000  0.19190142       0.000
   0.19366199  0.00000000  0.19366199       0.000
   0.19542255  0.00000000  0.19542255       0.000
   0.19718310  0.00000000  0.19718310       0.000
   0.19894366  0.00000000  0.19894366       0.000
   0.20070422  0.00000000  0.20070422       0.000
   0.20246480  0.00000000  0.20246480       0.000
   0.20422536  0.00000000  0.20422536       0.000
   0.20598592  0.00000000  0.20598592       0.000
   0.20774649  0.00000000  0.20774649       0.000
   0.20950706  0.00000000  0.20950706       0.000
   0.21126762  0.00000000  0.21126762       0.000
   0.21302818  0.00000000  0.21302818       0.000
   0.21478873  0.00000000  0.21478873       0.000
   0.21654931  0.00000000  0.21654931       0.000
   0.21830986  0.00000000  0.21830986       0.000
   0.22007042  0.00000000  0.22007042       0.000
   0.22183101  0.00000000  0.22183101       0.000
   0.22359157  0.00000000  0.22359157       0.000
   0.22535212  0.00000000  0.22535212       0.000
   0.22711268  0.00000000  0.22711268       0.000
   0.22887324  0.00000000  0.22887324       0.000
   0.23063383  0.00000000  0.23063383       0.000
   0.23239438  0.00000000  0.23239438       0.000
   0.23415494  0.00000000  0.23415494       0.000
   0.23591551  0.00000000  0.23591551       0.000
   0.23767607  0.00000000  0.23767607       0.000
   0.23943663  0.00000000  0.23943663       0.000
   0.24119718  0.00000000  0.24119718       0.000
   0.24295774  0.00000000  0.24295774       0.000
   0.24471833  0.00000000  0.24471833       0.000
   0.24647889  0.00000000  0.24647889       0.000
   0.24823944  0.00000000  0.24823944       0.000
   0.25000003  0.00000000  0.25000003       0.000
   0.25176057  0.00000000  0.25176057       0.000
   0.25352114  0.00000000  0.25352114       0.000
   0.25528169  0.00000000  0.25528169       0.000
   0.25704226  0.00000000  0.25704226       0.000
   0.25880283  0.00000000  0.25880283       0.000
   0.26056340  0.00000000  0.26056340       0.000
   0.26232395  0.00000000  0.26232395       0.000
   0.26408452  0.00000000  0.26408452       0.000
   0.26584509  0.00000000  0.26584509       0.000
   0.26760563  0.00000000  0.26760563       0.000
   0.26936620  0.00000000  0.26936620       0.000
   0.27112675  0.00000000  0.27112675       0.000
   0.27288735  0.00000000  0.27288735       0.000
   0.27464789  0.00000000  0.27464789       0.000
   0.27640846  0.00000000  0.27640846       0.000
   0.27816904  0.00000000  0.27816904       0.000
   0.27992961  0.00000000  0.27992961       0.000
   0.28169015  0.00000000  0.28169015       0.000
   0.28345072  0.00000000  0.28345072       0.000
   0.28521127  0.00000000  0.28521127       0.000
   0.28697184  0.00000000  0.28697184       0.000
   0.28873241  0.00000000  0.28873241       0.000
   0.29049295  0.00000000  0.29049295       0.000
   0.29225355  0.00000000  0.29225355       0.000
   0.29401410  0.00000000  0.29401410       0.000
   0.29577467  0.00000000  0.29577467       0.000
   0.29753521  0.00000000  0.29753521       0.000
   0.29929578  0.00000000  0.29929578       0.000
   0.30105636  0.00000000  0.30105636       0.000
   0.30281693  0.00000000  0.30281693       0.000
   0.30457747  0.00000000  0.30457747       0.000
   0.30633804  0.00000000  0.30633804       0.000
   0.30809861  0.00000000  0.30809861       0.000
   0.30985916  0.00000000  0.30985916       0.000
   0.31161973  0.00000000  0.31161973       0.000
   0.31338027  0.00000000  0.31338027       0.000
   0.31514087  0.00000000  0.31514087       0.000
   0.31690142  0.00000000  0.31690142       0.000
   0.31866199  0.00000000  0.31866199       0.000
   0.32042256  0.00000000  0.32042256       0.000
   0.32218313  0.00000000  0.32218313       0.000
   0.32394367  0.00000000  0.32394367       0.000
   0.32570425  0.00000000  0.32570425       0.000
   0.32746479  0.00000000  0.32746479       0.000
   0.32922536  0.00000000  0.32922536       0.000
   0.33098593  0.00000000  0.33098593       0.000
   0.33274648  0.00000000  0.33274648       0.000
   0.33450708  0.00000000  0.33450708       0.000
   0.33626762  0.00000000  0.33626762       0.000
   0.33802819  0.00000000  0.33802819       0.000
   0.33978873  0.00000000  0.33978873       0.000
   0.34154931  0.00000000  0.34154931       0.000
   0.34330988  0.00000000  0.34330988       0.000
   0.34507045  0.00000000  0.34507045       0.000
   0.34683099  0.00000000  0.34683099       0.000
   0.34859157  0.00000000  0.34859157       0.000
   0.35035214  0.00000000  0.35035214       0.000
   0.35211268  0.00000000  0.35211268       0.000
   0.35387325  0.00000000  0.35387325       0.000
   0.35563380  0.00000000  0.35563380       0.000
   0.35739437  0.00000000  0.35739437       0.000
   0.35915497  0.00000000  0.35915497       0.000
   0.36091551  0.00000000  0.36091551       0.000
   0.36267608  0.00000000  0.36267608       0.000
   0.36443663  0.00000000  0.36443663       0.000
   0.36619720  0.00000000  0.36619720       0.000
   0.36795777  0.00000000  0.36795777       0.000
   0.36971831  0.00000000  0.36971831       0.000
   0.37147889  0.00000000  0.37147889       0.000
   0.37323943  0.00000000  0.37323943       0.000
   0.37500003  0.00000000  0.37500003       0.000
   0.37676060  0.00000000  0.37676060       0.000
   0.37852114  0.00000000  0.37852114       0.000
   0.38028172  0.00000000  0.38028172       0.000
   0.38204226  0.00000000  0.38204226       0.000
   0.38380283  0.00000000  0.38380283       0.000
   0.38556337  0.00000000  0.38556337       0.000
   0.38732398  0.00000000  0.38732398       0.000
   0.38908455  0.00000000  0.38908455       0.000
   0.39084509  0.00000000  0.39084509       0.000
   0.39260566  0.00000000  0.39260566       0.000
   0.39436620  0.00000000  0.39436620       0.000
   0.39612678  0.00000000  0.39612678       0.000
   0.39788732  0.00000000  0.39788732       0.000
   0.39964789  0.00000000  0.39964789       0.000
   0.40140843  0.00000000  0.40140843       0.000
   0.40316904  0.00000000  0.40316904       0.000
   0.40492961  0.00000000  0.40492961       0.000
   0.40669015  0.00000000  0.40669015       0.000
   0.40845072  0.00000000  0.40845072       0.000
   0.41021127  0.00000000  0.41021127       0.000
   0.41197184  0.00000000  0.41197184       0.000
   0.41373241  0.00000000  0.41373241       0.000
   0.41549298  0.00000000  0.41549298       0.000
   0.41725355  0.00000000  0.41725355       0.000
   0.41901413  0.00000000  0.41901413       0.000
   0.42077467  0.00000000  0.42077467       0.000
   0.42253524  0.00000000  0.42253524       0.000
   0.42429578  0.00000000  0.42429578       0.000
   0.42605636  0.00000000  0.42605636       0.000
   0.42781690  0.00000000  0.42781690       0.000
   0.42957747  0.00000000  0.42957747       0.000
   0.43133807  0.00000000  0.43133807       0.000
   0.43309861  0.00000000  0.43309861       0.000
   0.43485919  0.00000000  0.43485919       0.000
   0.43661973  0.00000000  0.43661973       0.000
   0.43838030  0.00000000  0.43838030       0.000
   0.44014084  0.00000000  0.44014084       0.000
   0.44190142  0.00000000  0.44190142       0.000
   0.44366202  0.00000000  0.44366202       0.000
   0.44542256  0.00000000  0.44542256       0.000
   0.44718313  0.00000000  0.44718313       0.000
   0.44894367  0.00000000  0.44894367       0.000
   0.45070425  0.00000000  0.45070425       0.000
   0.45246479  0.00000000  0.45246479       0.000
   0.45422536  0.00000000  0.45422536       0.000
   0.45598593  0.00000000  0.45598593       0.000
   0.45774648  0.00000000  0.45774648       0.000
   0.45950708  0.00000000  0.45950708       0.000
   0.46126765  0.00000000  0.46126765       0.000
   0.46302819  0.00000000  0.46302819       0.000
   0.46478876  0.00000000  0.46478876       0.000
   0.46654931  0.00000000  0.46654931       0.000
   0.46830988  0.00000000  0.46830988       0.000
   0.47007042  0.00000000  0.47007042       0.000
   0.47183102  0.00000000  0.47183102       0.000
   0.47359160  0.00000000  0.47359160       0.000
   0.47535214  0.00000000  0.47535214       0.000
   0.47711271  0.00000000  0.47711271       0.000
   0.47887325  0.00000000  0.47887325       0.000
   0.48063383  0.00000000  0.48063383       0.000
   0.48239437  0.00000000  0.48239437       0.000
   0.48415494  0.00000000  0.48415494       0.000
   0.48591548  0.00000000  0.48591548       0.000
   0.48767608  0.00000000  0.48767608       0.000
   0.48943666  0.00000000  0.48943666       0.000
   0.49119720  0.00000000  0.49119720       0.000
   0.49295777  0.00000000  0.49295777       0.000
   0.49471831  0.00000000  0.49471831       0.000
   0.49647889  0.00000000  0.49647889       0.000
   0.49823943  0.00000000  0.49823943       0.000
 
 position of ions in fractional coordinates (direct lattice) 
   0.00000000  0.00000000  0.00000000
   0.25000000  0.25000000  0.25000000
 
 position of ions in cartesian coordinates  (Angst):
   0.00000000  0.00000000  0.00000000
   1.35775000  1.35775000 -1.35775000
 


--------------------------------------------------------------------------------------------------------


 k-point  1 :   0.0000 0.0000 0.0000  plane waves:     965
 k-point  2 :   0.1667 0.0000 0.0000  plane waves:     989
 k-point  3 :   0.3333 0.0000 0.0000  plane waves:    1008
 k-point  4 :   0.5000 0.0000 0.0000  plane waves:    1008
 k-point  5 :   0.1667 0.1667 0.0000  plane waves:     998
 k-point  6 :   0.3333 0.1667 0.0000  plane waves:    1011
 k-point  7 :   0.5000 0.1667 0.0000  plane waves:    1017
 k-point  8 :  -0.3333 0.1667 0.0000  plane waves:    1019
 k-point  9 :  -0.1667 0.1667 0.0000  plane waves:    1013
 k-point 10 :   0.3333 0.3333 0.0000  plane waves:    1018
 k-point 11 :   0.5000 0.3333 0.0000  plane waves:    1012
 k-point 12 :  -0.3333 0.3333 0.0000  plane waves:    1015
 k-point 13 :   0.5000 0.5000 0.0000  plane waves:    1034
 k-point 14 :   0.5000 0.3333 0.1667  plane waves:    1032
 k-point 15 :  -0.3333 0.3333 0.1667  plane waves:    1020
 k-point 16 :   0.0000 0.0000 0.0000  plane waves:     965
 k-point 17 :   0.0018 0.0000 0.0018  plane waves:     965
 k-point 18 :   0.0035 0.0000 0.0035  plane waves:     965
 k-point 19 :   0.0053 0.0000 0.0053  plane waves:     965
 k-point 20 :   0.0070 0.0000 0.0070  plane waves:     965
 k-point 21 :   0.0088 0.0000 0.0088  plane waves:     965
 k-point 22 :   0.0106 0.0000 0.0106  plane waves:     965
 k-point 23 :   0.0123 0.0000 0.0123  plane waves:     965
 k-point 24 :   0.0141 0.0000 0.0141  plane waves:     965
 k-point 25 :   0.0158 0.0000 0.0158  plane waves:     965
 k-point 26 :   0.0176 0.0000 0.0176  plane waves:     965
 k-point 27 :   0.0194 0.0000 0.0194  plane waves:     965
 k-point 28 :   0.0211 0.0000 0.0211  plane waves:     965
 k-point 29 :   0.0229 0.0000 0.0229  plane waves:     965
 k-point 30 :   0.0246 0.0000 0.0246  plane waves:     965
 k-point 31 :   0.0264 0.0000 0.0264  plane waves:     965
 k-point 32 :   0.0282 0.0000 0.0282  plane waves:     969
 k-point 33 :   0.0299 0.0000 0.0299  plane waves:     969
 k-point 34 :   0.0317 0.0000 0.0317  plane waves:     969
 k-point 35 :   0.0335 0.0000 0.0335  plane waves:     969
 k-point 36 :   0.0352 0.0000 0.0352  plane waves:     981
 k-point 37 :   0.0370 0.0000 0.0370  plane waves:     981
 k-point 38 :   0.0387 0.0000 0.0387  plane waves:     981
 k-point 39 :   0.0405 0.0000 0.0405  plane waves:     981
 k-point 40 :   0.0423 0.0000 0.0423  plane waves:     981
 k-point 41 :   0.0440 0.0000 0.0440  plane waves:     981
 k-point 42 :   0.0458 0.0000 0.0458  plane waves:     981
 k-point 43 :   0.0475 0.0000 0.0475  plane waves:     981
 k-point 44 :   0.0493 0.0000 0.0493  plane waves:     990
 k-point 45 :   0.0511 0.0000 0.0511  plane waves:     990
 k-point 46 :   0.0528 0.0000 0.0528  plane waves:     990
 k-point 47 :   0.0546 0.0000 0.0546  plane waves:     990
 k-point 48 :   0.0563 0.0000 0.0563  plane waves:     990
 k-point 49 :   0.0581 0.0000 0.0581  plane waves:     990
 k-point 50 :   0.0599 0.0000 0.0599  plane waves:     990
 k-point 51 :   0.0616 0.0000 0.0616  plane waves:     994
 k-point 52 :   0.0634 0.0000 0.0634  plane waves:     994
 k-point 53 :   0.0651 0.0000 0.0651  plane waves:     990
 k-point 54 :   0.0669 0.0000 0.0669  plane waves:     990
 k-point 55 :   0.0687 0.0000 0.0687  plane waves:     990
 k-point 56 :   0.0704 0.0000 0.0704  plane waves:     990
 k-point 57 :   0.0722 0.0000 0.0722  plane waves:     990
 k-point 58 :   0.0739 0.0000 0.0739  plane waves:     990
 k-point 59 :   0.0757 0.0000 0.0757  plane waves:     990
 k-point 60 :   0.0775 0.0000 0.0775  plane waves:     990
 k-point 61 :   0.0792 0.0000 0.0792  plane waves:     990
 k-point 62 :   0.0810 0.0000 0.0810  plane waves:     990
 k-point 63 :   0.0827 0.0000 0.0827  plane waves:    1002
 k-point 64 :   0.0845 0.0000 0.0845  plane waves:    1002
 k-point 65 :   0.0863 0.0000 0.0863  plane waves:    1002
 k-point 66 :   0.0880 0.0000 0.0880  plane waves:    1002
 k-point 67 :   0.0898 0.0000 0.0898  plane waves:    1002
 k-point 68 :   0.0915 0.0000 0.0915  plane waves:    1002
 k-point 69 :   0.0933 0.0000 0.0933  plane waves:    1002
 k-point 70 :   0.0951 0.0000 0.0951  plane waves:    1002
 k-point 71 :   0.0968 0.0000 0.0968  plane waves:    1002
 k-point 72 :   0.0986 0.0000 0.0986  plane waves:    1002
 k-point 73 :   0.1004 0.0000 0.1004  plane waves:    1002
 k-point 74 :   0.1021 0.0000 0.1021  plane waves:    1002
 k-point 75 :   0.1039 0.0000 0.1039  plane waves:    1002
 k-point 76 :   0.1056 0.0000 0.1056  plane waves:    1002
 k-point 77 :   0.1074 0.0000 0.1074  plane waves:    1002
 k-point 78 :   0.1092 0.0000 0.1092  plane waves:    1002
 k-point 79 :   0.1109 0.0000 0.1109  plane waves:    1002
 k-point 80 :   0.1127 0.0000 0.1127  plane waves:    1002
 k-point 81 :   0.1144 0.0000 0.1144  plane waves:    1002
 k-point 82 :   0.1162 0.0000 0.1162  plane waves:    1002
 k-point 83 :   0.1180 0.0000 0.1180  plane waves:    1002
 k-point 84 :   0.1197 0.0000 0.1197  plane waves:    1002
 k-point 85 :   0.1215 0.0000 0.1215  plane waves:    1002
 k-point 86 :   0.1232 0.0000 0.1232  plane waves:    1002
 k-point 87 :   0.1250 0.0000 0.1250  plane waves:     994
 k-point 88 :   0.1268 0.0000 0.1268  plane waves:     994
 k-point 89 :   0.1285 0.0000 0.1285  plane waves:     994
 k-point 90 :   0.1303 0.0000 0.1303  plane waves:     994
 k-point 91 :   0.1320 0.0000 0.1320  plane waves:     994
 k-point 92 :   0.1338 0.0000 0.1338  plane waves:     994
 k-point 93 :   0.1356 0.0000 0.1356  plane waves:     994
 k-point 94 :   0.1373 0.0000 0.1373  plane waves:     994
 k-point 95 :   0.1391 0.0000 0.1391  plane waves:     994
 k-point 96 :   0.1408 0.0000 0.1408  plane waves:     994
 k-point 97 :   0.1426 0.0000 0.1426  plane waves:     994
 k-point 98 :   0.1444 0.0000 0.1444  plane waves:     994
 k-point 99 :   0.1461 0.0000 0.1461  plane waves:     994
 k-point ** :   0.1479 0.0000 0.1479  plane waves:     994
 k-point ** :   0.1496 0.0000 0.1496  plane waves:     994
 k-point ** :   0.1514 0.0000 0.1514  plane waves:     998
 k-point ** :   0.1532 0.0000 0.1532  plane waves:     998
 k-point ** :   0.1549 0.0000 0.1549  plane waves:     998
 k-point ** :   0.1567 0.0000 0.1567  plane waves:     998
 k-point ** :   0.1585 0.0000 0.1585  plane waves:     998
 k-point ** :   0.1602 0.0000 0.1602  plane waves:     998
 k-point ** :   0.1620 0.0000 0.1620  plane waves:     998
 k-point ** :   0.1637 0.0000 0.1637  plane waves:     998
 k-point ** :   0.1655 0.0000 0.1655  plane waves:     998
 k-point ** :   0.1673 0.0000 0.1673  plane waves:     998
 k-point ** :   0.1690 0.0000 0.1690  plane waves:     998
 k-point ** :   0.1708 0.0000 0.1708  plane waves:     998
 k-point ** :   0.1725 0.0000 0.1725  plane waves:     998
 k-point ** :   0.1743 0.0000 0.1743  plane waves:     998
 k-point ** :   0.1761 0.0000 0.1761  plane waves:     998
 k-point ** :   0.1778 0.0000 0.1778  plane waves:     998
 k-point ** :   0.1796 0.0000 0.1796  plane waves:     998
 k-point ** :   0.1813 0.0000 0.1813  plane waves:     998
 k-point ** :   0.1831 0.0000 0.1831  plane waves:     998
 k-point ** :   0.1849 0.0000 0.1849  plane waves:     998
 k-point ** :   0.1866 0.0000 0.1866  plane waves:     998
 k-point ** :   0.1884 0.0000 0.1884  plane waves:     998
 k-point ** :   0.1901 0.0000 0.1901  plane waves:     998
 k-point ** :   0.1919 0.0000 0.1919  plane waves:     998
 k-point ** :   0.1937 0.0000 0.1937  plane waves:     998
 k-point ** :   0.1954 0.0000 0.1954  plane waves:     998
 k-point ** :   0.1972 0.0000 0.1972  plane waves:     998
 k-point ** :   0.1989 0.0000 0.1989  plane waves:     998
 k-point ** :   0.2007 0.0000 0.2007  plane waves:     998
 k-point ** :   0.2025 0.0000 0.2025  plane waves:     998
 k-point ** :   0.2042 0.0000 0.2042  plane waves:     998
 k-point ** :   0.2060 0.0000 0.2060  plane waves:     998
 k-point ** :   0.2077 0.0000 0.2077  plane waves:     998
 k-point ** :   0.2095 0.0000 0.2095  plane waves:     998
 k-point ** :   0.2113 0.0000 0.2113  plane waves:     998
 k-point ** :   0.2130 0.0000 0.2130  plane waves:     998
 k-point ** :   0.2148 0.0000 0.2148  plane waves:     998
 k-point ** :   0.2165 0.0000 0.2165  plane waves:     998
 k-point ** :   0.2183 0.0000 0.2183  plane waves:     998
 k-point ** :   0.2201 0.0000 0.2201  plane waves:     998
 k-point ** :   0.2218 0.0000 0.2218  plane waves:     998
 k-point ** :   0.2236 0.0000 0.2236  plane waves:     998
 k-point ** :   0.2254 0.0000 0.2254  plane waves:     998
 k-point ** :   0.2271 0.0000 0.2271  plane waves:     998
 k-point ** :   0.2289 0.0000 0.2289  plane waves:     998
 k-point ** :   0.2306 0.0000 0.2306  plane waves:     998
 k-point ** :   0.2324 0.0000 0.2324  plane waves:     998
 k-point ** :   0.2342 0.0000 0.2342  plane waves:     998
 k-point ** :   0.2359 0.0000 0.2359  plane waves:     998
 k-point ** :   0.2377 0.0000 0.2377  plane waves:     998
 k-point ** :   0.2394 0.0000 0.2394  plane waves:     998
 k-point ** :   0.2412 0.0000 0.2412  plane waves:     998
 k-point ** :   0.2430 0.0000 0.2430  plane waves:     998
 k-point ** :   0.2447 0.0000 0.2447  plane waves:     998
 k-point ** :   0.2465 0.0000 0.2465  plane waves:     998
 k-point ** :   0.2482 0.0000 0.2482  plane waves:     998
 k-point ** :   0.2500 0.0000 0.2500  plane waves:     998
 k-point ** :   0.2518 0.0000 0.2518  plane waves:     998
 k-point ** :   0.2535 0.0000 0.2535  plane waves:     998
 k-point ** :   0.2553 0.0000 0.2553  plane waves:     998
 k-point ** :   0.2570 0.0000 0.2570  plane waves:    1010
 k-point ** :   0.2588 0.0000 0.2588  plane waves:    1010
 k-point ** :   0.2606 0.0000 0.2606  plane waves:    1018
 k-point ** :   0.2623 0.0000 0.2623  plane waves:    1018
 k-point ** :   0.2641 0.0000 0.2641  plane waves:    1018
 k-point ** :   0.2658 0.0000 0.2658  plane waves:    1018
 k-point ** :   0.2676 0.0000 0.2676  plane waves:    1018
 k-point ** :   0.2694 0.0000 0.2694  plane waves:    1018
 k-point ** :   0.2711 0.0000 0.2711  plane waves:    1018
 k-point ** :   0.2729 0.0000 0.2729  plane waves:    1018
 k-point ** :   0.2746 0.0000 0.2746  plane waves:    1018
 k-point ** :   0.2764 0.0000 0.2764  plane waves:    1018
 k-point ** :   0.2782 0.0000 0.2782  plane waves:    1018
 k-point ** :   0.2799 0.0000 0.2799  plane waves:    1018
 k-point ** :   0.2817 0.0000 0.2817  plane waves:    1018
 k-point ** :   0.2835 0.0000 0.2835  plane waves:    1018
 k-point ** :   0.2852 0.0000 0.2852  plane waves:    1018
 k-point ** :   0.2870 0.0000 0.2870  plane waves:    1018
 k-point ** :   0.2887 0.0000 0.2887  plane waves:    1018
 k-point ** :   0.2905 0.0000 0.2905  plane waves:    1018
 k-point ** :   0.2923 0.0000 0.2923  plane waves:    1018
 k-point ** :   0.2940 0.0000 0.2940  plane waves:    1018
 k-point ** :   0.2958 0.0000 0.2958  plane waves:    1018
 k-point ** :   0.2975 0.0000 0.2975  plane waves:    1018
 k-point ** :   0.2993 0.0000 0.2993  plane waves:    1018
 k-point ** :   0.3011 0.0000 0.3011  plane waves:    1018
 k-point ** :   0.3028 0.0000 0.3028  plane waves:    1018
 k-point ** :   0.3046 0.0000 0.3046  plane waves:    1018
 k-point ** :   0.3063 0.0000 0.3063  plane waves:    1018
 k-point ** :   0.3081 0.0000 0.3081  plane waves:    1018
 k-point ** :   0.3099 0.0000 0.3099  plane waves:    1018
 k-point ** :   0.3116 0.0000 0.3116  plane waves:    1018
 k-point ** :   0.3134 0.0000 0.3134  plane waves:    1018
 k-point ** :   0.3151 0.0000 0.3151  plane waves:    1018
 k-point ** :   0.3169 0.0000 0.3169  plane waves:    1018
 k-point ** :   0.3187 0.0000 0.3187  plane waves:    1018
 k-point ** :   0.3204 0.0000 0.3204  plane waves:    1018
 k-point ** :   0.3222 0.0000 0.3222  plane waves:    1018
 k-point ** :   0.3239 0.0000 0.3239  plane waves:    1018
 k-point ** :   0.3257 0.0000 0.3257  plane waves:    1018
 k-point ** :   0.3275 0.0000 0.3275  plane waves:    1018
 k-point ** :   0.3292 0.0000 0.3292  plane waves:    1018
 k-point ** :   0.3310 0.0000 0.3310  plane waves:    1018
 k-point ** :   0.3327 0.0000 0.3327  plane waves:    1018
 k-point ** :   0.3345 0.0000 0.3345  plane waves:    1018
 k-point ** :   0.3363 0.0000 0.3363  plane waves:    1026
 k-point ** :   0.3380 0.0000 0.3380  plane waves:    1026
 k-point ** :   0.3398 0.0000 0.3398  plane waves:    1026
 k-point ** :   0.3415 0.0000 0.3415  plane waves:    1026
 k-point ** :   0.3433 0.0000 0.3433  plane waves:    1026
 k-point ** :   0.3451 0.0000 0.3451  plane waves:    1026
 k-point ** :   0.3468 0.0000 0.3468  plane waves:    1026
 k-point ** :   0.3486 0.0000 0.3486  plane waves:    1026
 k-point ** :   0.3504 0.0000 0.3504  plane waves:    1026
 k-point ** :   0.3521 0.0000 0.3521  plane waves:    1026
 k-point ** :   0.3539 0.0000 0.3539  plane waves:    1026
 k-point ** :   0.3556 0.0000 0.3556  plane waves:    1026
 k-point ** :   0.3574 0.0000 0.3574  plane waves:    1026
 k-point ** :   0.3592 0.0000 0.3592  plane waves:    1026
 k-point ** :   0.3609 0.0000 0.3609  plane waves:    1026
 k-point ** :   0.3627 0.0000 0.3627  plane waves:    1026
 k-point ** :   0.3644 0.0000 0.3644  plane waves:    1026
 k-point ** :   0.3662 0.0000 0.3662  plane waves:    1026
 k-point ** :   0.3680 0.0000 0.3680  plane waves:    1026
 k-point ** :   0.3697 0.0000 0.3697  plane waves:    1026
 k-point ** :   0.3715 0.0000 0.3715  plane waves:    1026
 k-point ** :   0.3732 0.0000 0.3732  plane waves:    1026
 k-point ** :   0.3750 0.0000 0.3750  plane waves:    1026
 k-point ** :   0.3768 0.0000 0.3768  plane waves:    1026
 k-point ** :   0.3785 0.0000 0.3785  plane waves:    1026
 k-point ** :   0.3803 0.0000 0.3803  plane waves:    1026
 k-point ** :   0.3820 0.0000 0.3820  plane waves:    1026
 k-point ** :   0.3838 0.0000 0.3838  plane waves:    1026
 k-point ** :   0.3856 0.0000 0.3856  plane waves:    1026
 k-point ** :   0.3873 0.0000 0.3873  plane waves:    1026
 k-point ** :   0.3891 0.0000 0.3891  plane waves:    1026
 k-point ** :   0.3908 0.0000 0.3908  plane waves:    1030
 k-point ** :   0.3926 0.0000 0.3926  plane waves:    1030
 k-point ** :   0.3944 0.0000 0.3944  plane waves:    1022
 k-point ** :   0.3961 0.0000 0.3961  plane waves:    1022
 k-point ** :   0.3979 0.0000 0.3979  plane waves:    1022
 k-point ** :   0.3996 0.0000 0.3996  plane waves:    1022
 k-point ** :   0.4014 0.0000 0.4014  plane waves:    1018
 k-point ** :   0.4032 0.0000 0.4032  plane waves:    1018
 k-point ** :   0.4049 0.0000 0.4049  plane waves:    1018
 k-point ** :   0.4067 0.0000 0.4067  plane waves:    1018
 k-point ** :   0.4085 0.0000 0.4085  plane waves:    1018
 k-point ** :   0.4102 0.0000 0.4102  plane waves:    1018
 k-point ** :   0.4120 0.0000 0.4120  plane waves:    1018
 k-point ** :   0.4137 0.0000 0.4137  plane waves:    1018
 k-point ** :   0.4155 0.0000 0.4155  plane waves:    1018
 k-point ** :   0.4173 0.0000 0.4173  plane waves:    1018
 k-point ** :   0.4190 0.0000 0.4190  plane waves:    1010
 k-point ** :   0.4208 0.0000 0.4208  plane waves:    1010
 k-point ** :   0.4225 0.0000 0.4225  plane waves:    1010
 k-point ** :   0.4243 0.0000 0.4243  plane waves:    1010
 k-point ** :   0.4261 0.0000 0.4261  plane waves:    1010
 k-point ** :   0.4278 0.0000 0.4278  plane waves:    1010
 k-point ** :   0.4296 0.0000 0.4296  plane waves:    1010
 k-point ** :   0.4313 0.0000 0.4313  plane waves:    1010
 k-point ** :   0.4331 0.0000 0.4331  plane waves:    1010
 k-point ** :   0.4349 0.0000 0.4349  plane waves:    1010
 k-point ** :   0.4366 0.0000 0.4366  plane waves:    1010
 k-point ** :   0.4384 0.0000 0.4384  plane waves:    1010
 k-point ** :   0.4401 0.0000 0.4401  plane waves:    1010
 k-point ** :   0.4419 0.0000 0.4419  plane waves:    1010
 k-point ** :   0.4437 0.0000 0.4437  plane waves:    1010
 k-point ** :   0.4454 0.0000 0.4454  plane waves:    1010
 k-point ** :   0.4472 0.0000 0.4472  plane waves:    1010
 k-point ** :   0.4489 0.0000 0.4489  plane waves:    1014
 k-point ** :   0.4507 0.0000 0.4507  plane waves:    1014
 k-point ** :   0.4525 0.0000 0.4525  plane waves:    1014
 k-point ** :   0.4542 0.0000 0.4542  plane waves:    1014
 k-point ** :   0.4560 0.0000 0.4560  plane waves:    1014
 k-point ** :   0.4577 0.0000 0.4577  plane waves:    1014
 k-point ** :   0.4595 0.0000 0.4595  plane waves:    1014
 k-point ** :   0.4613 0.0000 0.4613  plane waves:    1014
 k-point ** :   0.4630 0.0000 0.4630  plane waves:    1014
 k-point ** :   0.4648 0.0000 0.4648  plane waves:    1014
 k-point ** :   0.4665 0.0000 0.4665  plane waves:    1014
 k-point ** :   0.4683 0.0000 0.4683  plane waves:    1014
 k-point ** :   0.4701 0.0000 0.4701  plane waves:    1014
 k-point ** :   0.4718 0.0000 0.4718  plane waves:    1018
 k-point ** :   0.4736 0.0000 0.4736  plane waves:    1018
 k-point ** :   0.4754 0.0000 0.4754  plane waves:    1018
 k-point ** :   0.4771 0.0000 0.4771  plane waves:    1018
 k-point ** :   0.4789 0.0000 0.4789  plane waves:    1018
 k-point ** :   0.4806 0.0000 0.4806  plane waves:    1018
 k-point ** :   0.4824 0.0000 0.4824  plane waves:    1018
 k-point ** :   0.4842 0.0000 0.4842  plane waves:    1018
 k-point ** :   0.4859 0.0000 0.4859  plane waves:    1018
 k-point ** :   0.4877 0.0000 0.4877  plane waves:    1018
 k-point ** :   0.4894 0.0000 0.4894  plane waves:    1018
 k-point ** :   0.4912 0.0000 0.4912  plane waves:    1018
 k-point ** :   0.4930 0.0000 0.4930  plane waves:    1018
 k-point ** :   0.4947 0.0000 0.4947  plane waves:    1018
 k-point ** :   0.4965 0.0000 0.4965  plane waves:    1018
 k-point ** :   0.4982 0.0000 0.4982  plane waves:    1026

 maximum and minimum number of plane-waves per node :       183      155

 maximum number of plane-waves:      1034
 maximum index in each direction: 
   IXMAX=    7   IYMAX=    7   IZMAX=    7
   IXMIN=   -7   IYMIN=   -7   IZMIN=   -7

 WARNING: aliasing errors must be expected set NGX to  30 to avoid them
 WARNING: aliasing errors must be expected set NGY to  30 to avoid them
 WARNING: aliasing errors must be expected set NGZ to  30 to avoid them
 aliasing errors are usually negligible using standard VASP settings
 and one can safely disregard these warnings

 parallel 3D FFT for wavefunctions:
    minimum data exchange during FFTs selected (reduces bandwidth)
 parallel 3D FFT for charge:
    minimum data exchange during FFTs selected (reduces bandwidth)


 total amount of memory used by VASP on root node    36070. kBytes
========================================================================

   base      :      30000. kBytes
   nonl-proj :       3296. kBytes
   fftplans  :        428. kBytes
   grid      :        621. kBytes
   one-center:          3. kBytes
   wavefun   :       1722. kBytes
 
     INWAV:  cpu time    0.0000: real time    0.0003
 initial charge density was supplied:
 number of electron       8.0000001 magnetization 
 keeping initial charge density in first step


--------------------------------------------------------------------------------------------------------


 Maximum index for augmentation-charges         1360 (set IRDMAX)


--------------------------------------------------------------------------------------------------------


 First call to EWALD:  gamma=   0.518
 Maximum number of real-space cells 3x 3x 3
 Maximum number of reciprocal cells 3x 3x 3

 FEWALD executed in parallel
    FEWALD:  cpu time    0.0040: real time    0.0045


----------------------------------------- Iteration    1(   1)  ---------------------------------------


    POTLOK:  cpu time    0.0040: real time    0.0051
    SETDIJ:  cpu time    0.0040: real time    0.0020
     EDDAV:  cpu time    0.1320: real time    0.1332
       DOS:  cpu time    0.0000: real time    0.0014
    --------------------------------------------
      LOOP:  cpu time    0.1480: real time    0.1635

 eigenvalue-minimisations  :  4792
 total energy-change (2. order) : 0.6707197E+01  (-0.3176598E+03)
 number of electron       8.0000001 magnetization 
 augmentation part        8.0000001 magnetization 

 Free energy of the ion-electron system (eV)
  ---------------------------------------------------
  alpha Z        PSCENC =         3.36228930
  Ewald energy   TEWEN  =      -228.52143995
  -Hartree energ DENC   =       -14.67338014
  -exchange      EXHF   =         0.00000000
  -V(xc)+E(xc)   XCENC  =       -16.84215720
  PAW double counting   =       872.12719759     -837.76694821
  entropy T*S    EENTRO =        -0.00017624
  eigenvalues    EBANDS =        23.87092050
  atomic energy  EATOM  =       205.15089164
  Solvation  Ediel_sol  =         0.00000000
  ---------------------------------------------------
  free energy    TOTEN  =         6.70719729 eV

  energy without entropy =        6.70737353  energy(sigma->0) =        6.70728541


--------------------------------------------------------------------------------------------------------




----------------------------------------- Iteration    1(   2)  ---------------------------------------


     EDDAV:  cpu time    0.2120: real time    0.2120
       DOS:  cpu time    0.0040: real time    0.0008
    --------------------------------------------
      LOOP:  cpu time    0.2160: real time    0.2197

 eigenvalue-minimisations  :  7768
 total energy-change (2. order) :-0.1766658E+02  (-0.1751767E+02)
 number of electron       8.0000001 magnetization 
 augmentation part        8.0000001 magnetization 

 Free energy of the ion-electron system (eV)
  ---------------------------------------------------
  alpha Z        PSCENC =         3.36228930
  Ewald energy   TEWEN  =      -228.52143995
  -Hartree energ DENC   =       -14.67338014
  -exchange      EXHF   =         0.00000000
  -V(xc)+E(xc)   XCENC  =       -16.84215720
  PAW double counting   =       872.12719759     -837.76694821
  entropy T*S    EENTRO =        -0.00000000
  eigenvalues    EBANDS =         6.20416197
  atomic energy  EATOM  =       205.15089164
  Solvation  Ediel_sol  =         0.00000000
  ---------------------------------------------------
  free energy    TOTEN  =       -10.95938500 eV

  energy without entropy =      -10.95938500  energy(sigma->0) =      -10.95938500


--------------------------------------------------------------------------------------------------------




----------------------------------------- Iteration    1(   3)  ---------------------------------------


     EDDAV:  cpu time    0.1880: real time    0.1890
       DOS:  cpu time    0.0040: real time    0.0025
    --------------------------------------------
      LOOP:  cpu time    0.1920: real time    0.1993

 eigenvalue-minimisations  :  6432
 total energy-change (2. order) :-0.2170086E+00  (-0.2170086E+00)
 number of electron       8.0000001 magnetization 
 augmentation part        8.0000001 magnetization 

 Free energy of the ion-electron system (eV)
  ---------------------------------------------------
  alpha Z        PSCENC =         3.36228930
  Ewald energy   TEWEN  =      -228.52143995
  -Hartree energ DENC   =       -14.67338014
  -exchange      EXHF   =         0.00000000
  -V(xc)+E(xc)   XCENC  =       -16.84215720
  PAW double counting   =       872.12719759     -837.76694821
  entropy T*S    EENTRO =        -0.00000000
  eigenvalues    EBANDS =         5.98715339
  atomic energy  EATOM  =       205.15089164
  Solvation  Ediel_sol  =         0.00000000
  ---------------------------------------------------
  free energy    TOTEN  =       -11.17639358 eV

  energy without entropy =      -11.17639358  energy(sigma->0) =      -11.17639358


--------------------------------------------------------------------------------------------------------




----------------------------------------- Iteration    1(   4)  ---------------------------------------


     EDDAV:  cpu time    0.2040: real time    0.2008
       DOS:  cpu time    0.0000: real time    0.0010
    --------------------------------------------
      LOOP:  cpu time    0.2040: real time    0.2105

 eigenvalue-minimisations  :  7592
 total energy-change (2. order) :-0.1041938E-02  (-0.1041938E-02)
 number of electron       8.0000001 magnetization 
 augmentation part        8.0000001 magnetization 

 Free energy of the ion-electron system (eV)
  ---------------------------------------------------
  alpha Z        PSCENC =         3.36228930
  Ewald energy   TEWEN  =      -228.52143995
  -Hartree energ DENC   =       -14.67338014
  -exchange      EXHF   =         0.00000000
  -V(xc)+E(xc)   XCENC  =       -16.84215720
  PAW double counting   =       872.12719759     -837.76694821
  entropy T*S    EENTRO =        -0.00000000
  eigenvalues    EBANDS =         5.98611145
  atomic energy  EATOM  =       205.15089164
  Solvation  Ediel_sol  =         0.00000000
  ---------------------------------------------------
  free energy    TOTEN  =       -11.17743552 eV

  energy without entropy =      -11.17743552  energy(sigma->0) =      -11.17743552


--------------------------------------------------------------------------------------------------------




----------------------------------------- Iteration    1(   5)  ---------------------------------------


     EDDAV:  cpu time    0.1720: real time    0.1717
       DOS:  cpu time    0.0000: real time    0.0009
    --------------------------------------------
      LOOP:  cpu time    0.1720: real time    0.1796

 eigenvalue-minimisations  :  6400
 total energy-change (2. order) :-0.8949553E-06  (-0.8949553E-06)
 number of electron       8.0000001 magnetization 
 augmentation part        8.0000001 magnetization 

 Free energy of the ion-electron system (eV)
  ---------------------------------------------------
  alpha Z        PSCENC =         3.36228930
  Ewald energy   TEWEN  =      -228.52143995
  -Hartree energ DENC   =       -14.67338014
  -exchange      EXHF   =         0.00000000
  -V(xc)+E(xc)   XCENC  =       -16.84215720
  PAW double counting   =       872.12719759     -837.76694821
  entropy T*S    EENTRO =        -0.00000000
  eigenvalues    EBANDS =         5.98611055
  atomic energy  EATOM  =       205.15089164
  Solvation  Ediel_sol  =         0.00000000
  ---------------------------------------------------
  free energy    TOTEN  =       -11.17743642 eV

  energy without entropy =      -11.17743642  energy(sigma->0) =      -11.17743642


--------------------------------------------------------------------------------------------------------




----------------------------------------- Iteration    1(   6)  ---------------------------------------


     EDDAV:  cpu time    0.2040: real time    0.2041
       DOS:  cpu time    0.0000: real time    0.0010
    --------------------------------------------
      LOOP:  cpu time    0.2240: real time    0.2286

 eigenvalue-minimisations  :  7680
 total energy-change (2. order) :-0.5885113E-08  (-0.5885099E-08)
 number of electron       8.0000001 magnetization 
 augmentation part        8.0000001 magnetization 

 Free energy of the ion-electron system (eV)
  ---------------------------------------------------
  alpha Z        PSCENC =         3.36228930
  Ewald energy   TEWEN  =      -228.52143995
  -Hartree energ DENC   =       -14.67338014
  -exchange      EXHF   =         0.00000000
  -V(xc)+E(xc)   XCENC  =       -16.84215720
[...]
      6       6.6911      0.00000
      7      14.9864      0.00000
      8      14.9868      0.00000

 k-point   266 :       0.4401    0.0000    0.4401
  band No.  band energies     occupation 
      1      -2.9233      2.00000
      2      -1.0682      2.00000
      3       2.9779      2.00000
      4       2.9779      2.00000
      5       6.2549      0.00000
      6       6.6796      0.00000
      7      15.0191      0.00000
      8      15.0191      0.00000

 k-point   267 :       0.4419    0.0000    0.4419
  band No.  band energies     occupation 
      1      -2.8983      2.00000
      2      -1.0975      2.00000
      3       2.9746      2.00000
      4       2.9746      2.00000
      5       6.2564      0.00000
      6       6.6683      0.00000
      7      15.0517      0.00000
      8      15.0517      0.00000

 k-point   268 :       0.4437    0.0000    0.4437
  band No.  band energies     occupation 
      1      -2.8733      2.00000
      2      -1.1267      2.00000
      3       2.9714      2.00000
      4       2.9714      2.00000
      5       6.2579      0.00000
      6       6.6571      0.00000
      7      15.0842      0.00000
      8      15.0843      0.00000

 k-point   269 :       0.4454    0.0000    0.4454
  band No.  band energies     occupation 
      1      -2.8481      2.00000
      2      -1.1559      2.00000
      3       2.9683      2.00000
      4       2.9683      2.00000
      5       6.2596      0.00000
      6       6.6462      0.00000
      7      15.1166      0.00000
      8      15.1166      0.00000

 k-point   270 :       0.4472    0.0000    0.4472
  band No.  band energies     occupation 
      1      -2.8229      2.00000
      2      -1.1851      2.00000
      3       2.9653      2.00000
      4       2.9653      2.00000
      5       6.2614      0.00000
      6       6.6353      0.00000
      7      15.1489      0.00000
      8      15.1490      0.00000

 k-point   271 :       0.4489    0.0000    0.4489
  band No.  band energies     occupation 
      1      -2.7977      2.00000
      2      -1.2141      2.00000
      3       2.9624      2.00000
      4       2.9624      2.00000
      5       6.2634      0.00000
      6       6.6246      0.00000
      7      15.1810      0.00000
      8      15.1811      0.00000

 k-point   272 :       0.4507    0.0000    0.4507
  band No.  band energies     occupation 
      1      -2.7723      2.00000
      2      -1.2432      2.00000
      3       2.9596      2.00000
      4       2.9596      2.00000
      5       6.2655      0.00000
      6       6.6141      0.00000
      7      15.2131      0.00000
      8      15.2132      0.00000

 k-point   273 :       0.4525    0.0000    0.4525
  band No.  band energies     occupation 
      1      -2.7469      2.00000
      2      -1.2722      2.00000
      3       2.9569      2.00000
      4       2.9569      2.00000
      5       6.2677      0.00000
      6       6.6038      0.00000
      7      15.2449      0.00000
      8      15.2449      0.00000

 k-point   274 :       0.4542    0.0000    0.4542
  band No.  band energies     occupation 
      1      -2.7214      2.00000
      2      -1.3011      2.00000
      3       2.9543      2.00000
      4       2.9543      2.00000
      5       6.2701      0.00000
      6       6.5935      0.00000
      7      15.2766      0.00000
      8      15.2767      0.00000

 k-point   275 :       0.4560    0.0000    0.4560
  band No.  band energies     occupation 
      1      -2.6958      2.00000
      2      -1.3299      2.00000
      3       2.9518      2.00000
      4       2.9518      2.00000
      5       6.2726      0.00000
      6       6.5835      0.00000
      7      15.3082      0.00000
      8      15.3082      0.00000

 k-point   276 :       0.4577    0.0000    0.4577
  band No.  band energies     occupation 
      1      -2.6701      2.00000
      2      -1.3588      2.00000
      3       2.9494      2.00000
      4       2.9494      2.00000
      5       6.2752      0.00000
      6       6.5736      0.00000
      7      15.3395      0.00000
      8      15.3395      0.00000

 k-point   277 :       0.4595    0.0000    0.4595
  band No.  band energies     occupation 
      1      -2.6444      2.00000
      2      -1.3875      2.00000
      3       2.9471      2.00000
      4       2.9471      2.00000
      5       6.2780      0.00000
      6       6.5638      0.00000
      7      15.3705      0.00000
      8      15.3706      0.00000

 k-point   278 :       0.4613    0.0000    0.4613
  band No.  band energies     occupation 
      1      -2.6186      2.00000
      2      -1.4162      2.00000
      3       2.9449      2.00000
      4       2.9449      2.00000
      5       6.2810      0.00000
      6       6.5543      0.00000
      7      15.4013      0.00000
      8      15.4013      0.00000

 k-point   279 :       0.4630    0.0000    0.4630
  band No.  band energies     occupation 
      1      -2.5927      2.00000
      2      -1.4449      2.00000
      3       2.9427      2.00000
      4       2.9427      2.00000
      5       6.2840      0.00000
      6       6.5448      0.00000
      7      15.4318      0.00000
      8      15.4318      0.00000

 k-point   280 :       0.4648    0.0000    0.4648
  band No.  band energies     occupation 
      1      -2.5668      2.00000
      2      -1.4735      2.00000
      3       2.9407      2.00000
      4       2.9407      2.00000
      5       6.2873      0.00000
      6       6.5355      0.00000
      7      15.4619      0.00000
      8      15.4622      0.00000

 k-point   281 :       0.4665    0.0000    0.4665
  band No.  band energies     occupation 
      1      -2.5408      2.00000
      2      -1.5020      2.00000
      3       2.9388      2.00000
      4       2.9388      2.00000
      5       6.2906      0.00000
      6       6.5264      0.00000
      7      15.4917      0.00000
      8      15.4923      0.00000

 k-point   282 :       0.4683    0.0000    0.4683
  band No.  band energies     occupation 
      1      -2.5147      2.00000
      2      -1.5305      2.00000
      3       2.9370      2.00000
      4       2.9370      2.00000
      5       6.2941      0.00000
      6       6.5174      0.00000
      7      15.5210      0.00000
      8      15.5210      0.00000

 k-point   283 :       0.4701    0.0000    0.4701
  band No.  band energies     occupation 
      1      -2.4885      2.00000
      2      -1.5589      2.00000
      3       2.9353      2.00000
      4       2.9353      2.00000
      5       6.2978      0.00000
      6       6.5086      0.00000
      7      15.5499      0.00000
      8      15.5502      0.00000

 k-point   284 :       0.4718    0.0000    0.4718
  band No.  band energies     occupation 
      1      -2.4623      2.00000
      2      -1.5873      2.00000
      3       2.9337      2.00000
      4       2.9337      2.00000
      5       6.3016      0.00000
      6       6.4999      0.00000
      7      15.5782      0.00000
      8      15.5782      0.00000

 k-point   285 :       0.4736    0.0000    0.4736
  band No.  band energies     occupation 
      1      -2.4360      2.00000
      2      -1.6156      2.00000
      3       2.9321      2.00000
      4       2.9321      2.00000
      5       6.3055      0.00000
      6       6.4914      0.00000
      7      15.6059      0.00000
      8      15.6062      0.00000

 k-point   286 :       0.4754    0.0000    0.4754
  band No.  band energies     occupation 
      1      -2.4096      2.00000
      2      -1.6439      2.00000
      3       2.9307      2.00000
      4       2.9307      2.00000
      5       6.3096      0.00000
      6       6.4831      0.00000
      7      15.6329      0.00000
      8      15.6337      0.00000

 k-point   287 :       0.4771    0.0000    0.4771
  band No.  band energies     occupation 
      1      -2.3831      2.00000
      2      -1.6721      2.00000
      3       2.9294      2.00000
      4       2.9294      2.00000
      5       6.3138      0.00000
      6       6.4748      0.00000
      7      15.6590      0.00000
      8      15.6599      0.00000

 k-point   288 :       0.4789    0.0000    0.4789
  band No.  band energies     occupation 
      1      -2.3566      2.00000
      2      -1.7002      2.00000
      3       2.9282      2.00000
      4       2.9282      2.00000
      5       6.3181      0.00000
      6       6.4668      0.00000
      7      15.6843      0.00000
      8      15.6847      0.00000

 k-point   289 :       0.4806    0.0000    0.4806
  band No.  band energies     occupation 
      1      -2.3300      2.00000
      2      -1.7283      2.00000
      3       2.9270      2.00000
      4       2.9270      2.00000
      5       6.3226      0.00000
      6       6.4589      0.00000
      7      15.7084      0.00000
      8      15.7090      0.00000

 k-point   290 :       0.4824    0.0000    0.4824
  band No.  band energies     occupation 
      1      -2.3034      2.00000
      2      -1.7563      2.00000
      3       2.9260      2.00000
      4       2.9260      2.00000
      5       6.3273      0.00000
      6       6.4511      0.00000
      7      15.7315      0.00000
      8      15.7318      0.00000

 k-point   291 :       0.4842    0.0000    0.4842
  band No.  band energies     occupation 
      1      -2.2767      2.00000
      2      -1.7843      2.00000
      3       2.9251      2.00000
      4       2.9251      2.00000
      5       6.3321      0.00000
      6       6.4435      0.00000
      7      15.7532      0.00000
      8      15.7548      0.00000

 k-point   292 :       0.4859    0.0000    0.4859
  band No.  band energies     occupation 
      1      -2.2499      2.00000
      2      -1.8122      2.00000
      3       2.9242      2.00000
      4       2.9242      2.00000
      5       6.3370      0.00000
      6       6.4361      0.00000
      7      15.7734      0.00000
      8      15.7738      0.00000

 k-point   293 :       0.4877    0.0000    0.4877
  band No.  band energies     occupation 
      1      -2.2230      2.00000
      2      -1.8400      2.00000
      3       2.9235      2.00000
      4       2.9235      2.00000
      5       6.3421      0.00000
      6       6.4288      0.00000
      7      15.7920      0.00000
      8      15.7927      0.00000

 k-point   294 :       0.4894    0.0000    0.4894
  band No.  band energies     occupation 
      1      -2.1961      2.00000
      2      -1.8678      2.00000
      3       2.9228      2.00000
      4       2.9228      2.00000
      5       6.3473      0.00000
      6       6.4216      0.00000
      7      15.8088      0.00000
      8      15.8092      0.00000

 k-point   295 :       0.4912    0.0000    0.4912
  band No.  band energies     occupation 
      1      -2.1691      2.00000
      2      -1.8955      2.00000
      3       2.9223      2.00000
      4       2.9223      2.00000
      5       6.3527      0.00000
      6       6.4146      0.00000
      7      15.8235      0.00000
      8      15.8237      0.00000

 k-point   296 :       0.4930    0.0000    0.4930
  band No.  band energies     occupation 
      1      -2.1420      2.00000
      2      -1.9231      2.00000
      3       2.9219      2.00000
      4       2.9219      2.00000
      5       6.3582      0.00000
      6       6.4077      0.00000
      7      15.8354      0.00000
      8      15.8359      0.00000

 k-point   297 :       0.4947    0.0000    0.4947
  band No.  band energies     occupation 
      1      -2.1149      2.00000
      2      -1.9507      2.00000
      3       2.9215      2.00000
      4       2.9215      2.00000
      5       6.3639      0.00000
      6       6.4010      0.00000
      7      15.8453      0.00000
      8      15.8470      0.00000

 k-point   298 :       0.4965    0.0000    0.4965
  band No.  band energies     occupation 
      1      -2.0877      2.00000
      2      -1.9782      2.00000
      3       2.9213      2.00000
      4       2.9213      2.00000
      5       6.3697      0.00000
      6       6.3945      0.00000
      7      15.8524      0.00000
      8      15.8550      0.00000

 k-point   299 :       0.4982    0.0000    0.4982
  band No.  band energies     occupation 
      1      -2.0604      2.00000
      2      -2.0057      2.00000
      3       2.9211      2.00000
      4       2.9211      2.00000
      5       6.3757      0.00000
      6       6.3881      0.00000
      7      15.8568      0.00000
      8      15.8582      0.00000


--------------------------------------------------------------------------------------------------------


 soft charge-density along one line, spin component           1
         0         1         2         3         4         5         6         7         8         9
 total charge-density along one line
 
 pseudopotential strength for first ion, spin component:           1
 18.401  25.671  -0.000   0.000  -0.000  -0.000   0.000  -0.000
 25.671  35.818  -0.000   0.000  -0.000  -0.000   0.000  -0.000
 -0.000  -0.000   4.177   0.000  -0.000   7.781   0.000  -0.000
  0.000   0.000   0.000   4.177   0.000   0.000   7.781   0.000
 -0.000  -0.000  -0.000   0.000   4.177  -0.000   0.000   7.781
 -0.000  -0.000   7.781   0.000  -0.000  14.507   0.000  -0.000
  0.000   0.000   0.000   7.781   0.000   0.000  14.507   0.000
 -0.000  -0.000  -0.000   0.000   7.781  -0.000   0.000  14.507
 total augmentation occupancy for first ion, spin component:           1
  2.000   0.000   0.000   0.000   0.000   0.000   0.000   0.000
  0.000   0.000   0.000   0.000   0.000   0.000   0.000   0.000
  0.000   0.000   0.667   0.000   0.000   0.000   0.000   0.000
  0.000   0.000   0.000   0.667   0.000   0.000   0.000   0.000
  0.000   0.000   0.000   0.000   0.667   0.000   0.000   0.000
  0.000   0.000   0.000   0.000   0.000   0.000   0.000   0.000
  0.000   0.000   0.000   0.000   0.000   0.000   0.000   0.000
  0.000   0.000   0.000   0.000   0.000   0.000   0.000   0.000


------------------------ aborting loop because EDIFF is reached ----------------------------------------


 


 total charge     
 
# of ion     s       p       d       tot
----------------------------------------
  1        0.746   0.949   0.000   1.695
  2        0.746   0.949   0.000   1.695
------------------------------------------------
tot        1.491   1.898   0.000   3.389
 
    CHARGE:  cpu time    0.0040: real time    0.0059
    FORLOC:  cpu time    0.0040: real time    0.0002
    FORNL :  cpu time    0.0080: real time    0.0081
    STRESS:  cpu time    0.0960: real time    0.0974
    FORCOR:  cpu time    0.0040: real time    0.0048
    FORHAR:  cpu time    0.0040: real time    0.0010
    OFIELD:  cpu time    0.0000: real time    0.0000

  FORCE on cell =-STRESS in cart. coord.  units (eV):
  Direction    XX          YY          ZZ          XY          YZ          ZX
  --------------------------------------------------------------------------------------
  Alpha Z     3.36229     3.36229     3.36229
  Ewald     -76.17385   -76.17385   -76.17385     0.00000     0.00000    -0.00000
  Hartree     4.94827     4.94827     4.94827     0.00000    -0.00000    -0.00000
  E(xc)     -25.56522   -25.56522   -25.56522     0.00000    -0.00000    -0.00000
  Local     -29.21833   -29.21833   -29.21833     0.00001    -0.00001    -0.00001
  n-local    74.01407    79.73733    78.97102    -1.15441    -2.58914    -0.75229
  augment   -11.46604   -11.46604   -11.46604    -0.00001     0.00001     0.00001
  Kinetic    55.17019    57.00672    58.68110    -0.95252    -3.74253    -0.96742
  Fock        0.00000     0.00000     0.00000     0.00000     0.00000     0.00000
  -------------------------------------------------------------------------------------
  Total       0.41394     0.41394     0.41394     0.00000    -0.00000    -0.00000
  in kB      16.56012    16.56012    16.56012     0.00000    -0.00000    -0.00000
  external pressure =       16.56 kB  Pullay stress =        0.00 kB


 VOLUME and BASIS-vectors are now :
 -----------------------------------------------------------------------------
  energy-cutoff  :      500.00
  volume of cell :       40.05
      direct lattice vectors                 reciprocal lattice vectors
     2.715500000  2.715500000  0.000000000     0.184128153  0.184128153  0.184128153
     2.715500000  0.000000000 -2.715500000     0.184128153 -0.184128153 -0.184128153
     0.000000000  2.715500000 -2.715500000    -0.184128153  0.184128153 -0.184128153

  length of vectors
     3.840296929  3.840296929  3.840296929     0.318919316  0.318919316  0.318919316


 FORCES acting on ions
    electron-ion (+dipol)            ewald-force                    non-local-force                 convergence-correction
 -----------------------------------------------------------------------------------------------
   -.164E-07 -.131E-07 0.131E-07   -.923E-14 -.515E-14 0.930E-14   0.555E-16 0.208E-16 -.694E-16   0.103E-08 0.103E-08 -.103E-08
   0.164E-07 0.131E-07 -.131E-07   0.907E-14 0.563E-14 -.939E-14   -.486E-16 -.416E-16 0.625E-16   -.103E-08 -.103E-08 0.103E-08
 -----------------------------------------------------------------------------------------------
   -.178E-13 0.583E-13 -.104E-12   -.164E-15 0.474E-15 -.970E-16   0.694E-17 -.208E-16 -.694E-17   0.113E-14 -.131E-14 0.357E-14
 
 
 POSITION                                       TOTAL-FORCE (eV/Angst)
 -----------------------------------------------------------------------------------
      0.00000      0.00000      0.00000        -0.000000     -0.000000     -0.000000
      1.35775      1.35775     -1.35775         0.000000      0.000000      0.000000
 -----------------------------------------------------------------------------------
    total drift:                               -0.000000      0.000000     -0.000000


--------------------------------------------------------------------------------------------------------



  FREE ENERGIE OF THE ION-ELECTRON SYSTEM (eV)
  ---------------------------------------------------
  free  energy   TOTEN  =       -11.17743642 eV

  energy  without entropy=      -11.17743642  energy(sigma->0) =      -11.17743642
 


--------------------------------------------------------------------------------------------------------


    POTLOK:  cpu time    0.0040: real time    0.0065


--------------------------------------------------------------------------------------------------------




--------------------------------------------------------------------------------------------------------


 writing wavefunctions
     LOOP+:  cpu time    1.9681: real time    2.2192
    4ORBIT:  cpu time    0.0000: real time    0.0000
 


 total charge     
 
# of ion     s       p       d       tot
----------------------------------------
  1        0.746   0.949   0.000   1.695
  2        0.746   0.949   0.000   1.695
------------------------------------------------
tot        1.491   1.898   0.000   3.389
 

 total amount of memory used by VASP on root node    36070. kBytes
========================================================================

   base      :      30000. kBytes
   nonl-proj :       3296. kBytes
   fftplans  :        428. kBytes
   grid      :        621. kBytes
   one-center:          3. kBytes
   wavefun   :       1722. kBytes
 
  
  
 General timing and accounting informations for this job:
 ========================================================
  
                  Total CPU time used (sec):        4.608
                            User time (sec):        3.192
                          System time (sec):        1.416
                         Elapsed time (sec):        5.397
  
                   Maximum memory used (kb):       28740.
                   Average memory used (kb):           0.
  
                          Minor page faults:         7475
                          Major page faults:            0
                 Voluntary context switches:         1042
