  96  96   0   0
  0.2080188E+02  0.1257760E-08  0.1245754E-08  0.1274818E-08  0.5000000E-15
  1.000000000000000E-004
  CAR 
 MAPbI3-Cubic                            
      8.86978232    -19.38487813  301      1.35875175      1.00000000
    -19.385  0.0000E+00  0.0000E+00
    -19.291  0.0000E+00  0.0000E+00
    -19.197  0.0000E+00  0.0000E+00
    -19.102  0.0000E+00  0.0000E+00
    -19.008  0.0000E+00  0.0000E+00
    -18.914  0.0000E+00  0.0000E+00
    -18.820  0.0000E+00  0.0000E+00
    -18.726  0.0000E+00  0.0000E+00
    -18.631  0.0000E+00  0.0000E+00
    -18.537  0.0000E+00  0.0000E+00
    -18.443  0.0000E+00  0.0000E+00
    -18.349  0.0000E+00  0.0000E+00
    -18.255  0.0000E+00  0.0000E+00
    -18.161  0.0000E+00  0.0000E+00
    -18.066  0.0000E+00  0.1600E+02
    -17.972  0.0000E+00  0.1600E+02
    -17.878  0.0000E+00  0.1600E+02
    -17.784  0.0000E+00  0.1600E+02
    -17.690  0.0000E+00  0.1600E+02
    -17.595  0.0000E+00  0.1600E+02
    -17.501  0.0000E+00  0.1600E+02
    -17.407  0.0000E+00  0.1600E+02
    -17.313  0.0000E+00  0.1600E+02
    -17.219  0.0000E+00  0.1600E+02
    -17.125  0.0000E+00  0.1600E+02
    -17.030  0.0000E+00  0.1600E+02
    -16.936  0.0000E+00  0.1600E+02
    -16.842  0.0000E+00  0.1600E+02
    -16.748  0.0000E+00  0.1600E+02
    -16.654  0.0000E+00  0.1600E+02
    -16.559  0.0000E+00  0.1600E+02
    -16.465  0.0000E+00  0.1600E+02
    -16.371  0.0000E+00  0.1600E+02
    -16.277  0.0000E+00  0.1600E+02
    -16.183  0.0000E+00  0.1600E+02
    -16.089  0.0000E+00  0.1600E+02
    -15.994  0.0000E+00  0.1600E+02
    -15.900  0.0000E+00  0.1600E+02
    -15.806  0.0000E+00  0.1600E+02
    -15.712  0.0000E+00  0.1600E+02
    -15.618  0.0000E+00  0.1600E+02
    -15.523  0.0000E+00  0.1600E+02
    -15.429  0.0000E+00  0.1600E+02
    -15.335  0.0000E+00  0.1600E+02
    -15.241  0.0000E+00  0.1600E+02
    -15.147  0.0000E+00  0.1600E+02
    -15.052  0.1699E+03  0.9600E+02
    -14.958  0.0000E+00  0.9600E+02
    -14.864  0.0000E+00  0.9600E+02
    -14.770  0.0000E+00  0.9600E+02
    -14.676  0.0000E+00  0.9600E+02
    -14.582  0.0000E+00  0.9600E+02
    -14.487  0.0000E+00  0.9600E+02
    -14.393  0.0000E+00  0.9600E+02
    -14.299  0.0000E+00  0.9600E+02
    -14.205  0.0000E+00  0.9600E+02
    -14.111  0.0000E+00  0.9600E+02
    -14.016  0.0000E+00  0.9600E+02
    -13.922  0.0000E+00  0.9600E+02
    -13.828  0.0000E+00  0.9600E+02
    -13.734  0.0000E+00  0.9600E+02
    -13.640  0.0000E+00  0.9600E+02
    -13.546  0.0000E+00  0.9600E+02
    -13.451  0.0000E+00  0.9600E+02
    -13.357  0.0000E+00  0.9600E+02
    -13.263  0.0000E+00  0.9600E+02
    -13.169  0.0000E+00  0.9600E+02
    -13.075  0.0000E+00  0.9600E+02
    -12.980  0.0000E+00  0.9600E+02
    -12.886  0.0000E+00  0.9600E+02
    -12.792  0.0000E+00  0.9600E+02
    -12.698  0.0000E+00  0.9600E+02
    -12.604  0.0000E+00  0.9600E+02
    -12.510  0.0000E+00  0.9600E+02
    -12.415  0.0000E+00  0.9600E+02
    -12.321  0.0000E+00  0.9600E+02
    -12.227  0.0000E+00  0.9600E+02
    -12.133  0.0000E+00  0.9600E+02
    -12.039  0.0000E+00  0.9600E+02
    -11.944  0.0000E+00  0.9600E+02
    -11.850  0.0000E+00  0.9600E+02
    -11.756  0.0000E+00  0.9600E+02
    -11.662  0.0000E+00  0.9600E+02
    -11.568  0.0000E+00  0.9600E+02
    -11.474  0.0000E+00  0.9600E+02
    -11.379  0.0000E+00  0.9600E+02
    -11.285  0.1703E+02  0.9931E+02
    -11.191  0.5226E+02  0.1089E+03
    -11.097  0.0000E+00  0.1120E+03
    -11.003  0.0000E+00  0.1120E+03
    -10.908  0.0000E+00  0.1120E+03
    -10.814  0.0000E+00  0.1121E+03
    -10.720  0.7796E+00  0.1138E+03
    -10.626  0.7453E+01  0.1183E+03
    -10.532  0.7443E+01  0.1253E+03
    -10.438  0.3143E+01  0.1285E+03
    -10.343  0.1024E+02  0.1333E+03
    -10.249  0.3146E+01  0.1399E+03
    -10.155  0.7480E+01  0.1432E+03
    -10.061  0.1108E+02  0.1454E+03
     -9.967  0.7622E+01  0.1559E+03
     -9.872  0.0000E+00  0.1600E+03
     -9.778  0.0000E+00  0.1600E+03
     -9.684  0.0000E+00  0.1600E+03
     -9.590  0.0000E+00  0.1600E+03
     -9.496  0.0000E+00  0.1600E+03
     -9.402  0.0000E+00  0.1600E+03
     -9.307  0.0000E+00  0.1600E+03
     -9.213  0.0000E+00  0.1600E+03
     -9.119  0.0000E+00  0.1600E+03
     -9.025  0.0000E+00  0.1600E+03
     -8.931  0.0000E+00  0.1600E+03
     -8.836  0.0000E+00  0.1600E+03
     -8.742  0.0000E+00  0.1600E+03
     -8.648  0.0000E+00  0.1600E+03
     -8.554  0.0000E+00  0.1600E+03
     -8.460  0.0000E+00  0.1600E+03
     -8.366  0.0000E+00  0.1600E+03
     -8.271  0.0000E+00  0.1600E+03
     -8.177  0.0000E+00  0.1600E+03
     -8.083  0.0000E+00  0.1600E+03
     -7.989  0.0000E+00  0.1600E+03
     -7.895  0.0000E+00  0.1600E+03
     -7.800  0.0000E+00  0.1600E+03
     -7.706  0.0000E+00  0.1600E+03
     -7.612  0.5378E+02  0.1677E+03
     -7.518  0.4719E+01  0.1853E+03
     -7.424  0.2359E+01  0.1920E+03
     -7.330  0.0000E+00  0.1920E+03
     -7.235  0.0000E+00  0.1920E+03
     -7.141  0.0000E+00  0.1920E+03
     -7.047  0.0000E+00  0.1920E+03
     -6.953  0.0000E+00  0.1921E+03
     -6.859  0.0000E+00  0.1925E+03
     -6.764  0.0000E+00  0.1934E+03
     -6.670  0.3146E+01  0.1940E+03
     -6.576  0.0000E+00  0.1944E+03
     -6.482  0.0000E+00  0.1964E+03
     -6.388  0.4718E+01  0.1988E+03
     -6.294  0.4453E+01  0.1997E+03
     -6.199  0.0000E+00  0.2015E+03
     -6.105  0.1573E+01  0.2036E+03
     -6.011  0.6287E+01  0.2054E+03
     -5.917  0.0000E+00  0.2063E+03
     -5.823  0.1573E+01  0.2075E+03
     -5.728  0.1378E+02  0.2146E+03
     -5.634  0.1757E+02  0.2225E+03
     -5.540  0.0000E+00  0.2239E+03
     -5.446  0.5166E-02  0.2239E+03
     -5.352  0.0000E+00  0.2240E+03
     -5.258  0.0000E+00  0.2240E+03
     -5.163  0.0000E+00  0.2240E+03
     -5.069  0.0000E+00  0.2240E+03
     -4.975  0.0000E+00  0.2240E+03
     -4.881  0.0000E+00  0.2240E+03
     -4.787  0.0000E+00  0.2240E+03
     -4.692  0.0000E+00  0.2240E+03
     -4.598  0.0000E+00  0.2240E+03
     -4.504  0.0000E+00  0.2240E+03
     -4.410  0.0000E+00  0.2240E+03
     -4.316  0.0000E+00  0.2240E+03
     -4.222  0.0000E+00  0.2240E+03
     -4.127  0.0000E+00  0.2240E+03
     -4.033  0.0000E+00  0.2240E+03
     -3.939  0.0000E+00  0.2240E+03
     -3.845  0.0000E+00  0.2240E+03
     -3.751  0.0000E+00  0.2240E+03
     -3.656  0.0000E+00  0.2240E+03
     -3.562  0.5898E+01  0.2249E+03
     -3.468  0.2473E+02  0.2491E+03
     -3.374  0.0000E+00  0.2560E+03
     -3.280  0.0000E+00  0.2560E+03
     -3.186  0.0000E+00  0.2560E+03
     -3.091  0.0000E+00  0.2560E+03
     -2.997  0.0000E+00  0.2560E+03
     -2.903  0.0000E+00  0.2560E+03
     -2.809  0.0000E+00  0.2560E+03
     -2.715  0.0000E+00  0.2560E+03
     -2.620  0.0000E+00  0.2560E+03
     -2.526  0.0000E+00  0.2560E+03
     -2.432  0.0000E+00  0.2560E+03
     -2.338  0.0000E+00  0.2560E+03
     -2.244  0.0000E+00  0.2560E+03
     -2.150  0.0000E+00  0.2560E+03
     -2.055  0.3146E+01  0.2570E+03
     -1.961  0.0000E+00  0.2593E+03
     -1.867  0.2748E-01  0.2616E+03
     -1.773  0.2591E+01  0.2640E+03
     -1.679  0.0000E+00  0.2666E+03
     -1.584  0.1573E+01  0.2705E+03
     -1.490  0.6292E+01  0.2738E+03
     -1.396  0.3132E+01  0.2769E+03
     -1.302  0.3131E+01  0.2794E+03
     -1.208  0.0000E+00  0.2800E+03
     -1.114  0.0000E+00  0.2800E+03
     -1.019  0.0000E+00  0.2804E+03
     -0.925  0.6291E+01  0.2834E+03
     -0.831  0.7613E+01  0.2893E+03
     -0.737  0.7865E+01  0.2949E+03
     -0.643  0.4719E+01  0.3001E+03
     -0.548  0.5505E+01  0.3039E+03
     -0.454  0.3734E+01  0.3070E+03
     -0.360  0.1083E+02  0.3125E+03
     -0.266  0.6193E+01  0.3175E+03
     -0.172  0.4719E+01  0.3250E+03
     -0.078  0.1573E+01  0.3301E+03
      0.017  0.2876E+01  0.3372E+03
      0.111  0.2368E+02  0.3450E+03
      0.205  0.7023E+01  0.3521E+03
      0.299  0.8018E+01  0.3618E+03
      0.393  0.8049E+01  0.3676E+03
      0.488  0.1582E+02  0.3768E+03
      0.582  0.6715E+01  0.3850E+03
      0.676  0.2789E+01  0.3907E+03
      0.770  0.2075E+01  0.3955E+03
      0.864  0.4552E-06  0.3972E+03
      0.958  0.5665E-02  0.3991E+03
      1.053  0.0000E+00  0.3993E+03
      1.147  0.0000E+00  0.3998E+03
      1.241  0.0000E+00  0.3999E+03
      1.335  0.0000E+00  0.4000E+03
      1.429  0.0000E+00  0.4000E+03
      1.524  0.0000E+00  0.4000E+03
      1.618  0.0000E+00  0.4000E+03
      1.712  0.0000E+00  0.4000E+03
      1.806  0.0000E+00  0.4000E+03
      1.900  0.0000E+00  0.4000E+03
      1.994  0.0000E+00  0.4000E+03
      2.089  0.0000E+00  0.4000E+03
      2.183  0.0000E+00  0.4000E+03
      2.277  0.0000E+00  0.4000E+03
      2.371  0.0000E+00  0.4000E+03
      2.465  0.0000E+00  0.4000E+03
      2.560  0.0000E+00  0.4000E+03
      2.654  0.0000E+00  0.4000E+03
      2.748  0.0000E+00  0.4000E+03
      2.842  0.0000E+00  0.4000E+03
      2.936  0.0000E+00  0.4000E+03
      3.030  0.0000E+00  0.4007E+03
      3.125  0.6197E-04  0.4009E+03
      3.219  0.4740E+01  0.4027E+03
      3.313  0.0000E+00  0.4035E+03
      3.407  0.0000E+00  0.4044E+03
      3.501  0.1244E-01  0.4060E+03
      3.596  0.0000E+00  0.4070E+03
      3.690  0.0000E+00  0.4080E+03
      3.784  0.0000E+00  0.4087E+03
      3.878  0.1244E-05  0.4093E+03
      3.972  0.0000E+00  0.4107E+03
      4.066  0.0000E+00  0.4130E+03
      4.161  0.0000E+00  0.4148E+03
      4.255  0.2220E-01  0.4169E+03
      4.349  0.4727E+01  0.4201E+03
      4.443  0.7529E+00  0.4224E+03
      4.537  0.3130E+01  0.4239E+03
      4.632  0.0000E+00  0.4239E+03
      4.726  0.0000E+00  0.4240E+03
      4.820  0.0000E+00  0.4240E+03
      4.914  0.0000E+00  0.4240E+03
      5.008  0.0000E+00  0.4240E+03
      5.102  0.0000E+00  0.4241E+03
      5.197  0.0000E+00  0.4251E+03
      5.291  0.6857E+00  0.4271E+03
      5.385  0.2059E-01  0.4316E+03
      5.479  0.2869E+01  0.4342E+03
      5.573  0.2476E-01  0.4376E+03
      5.668  0.3146E+01  0.4397E+03
      5.762  0.5591E-05  0.4413E+03
      5.856  0.0000E+00  0.4438E+03
      5.950  0.0000E+00  0.4466E+03
      6.044  0.6018E+01  0.4500E+03
      6.138  0.5744E-01  0.4544E+03
      6.233  0.7886E-03  0.4579E+03
      6.327  0.3147E+01  0.4619E+03
      6.421  0.7865E+00  0.4647E+03
      6.515  0.4719E+01  0.4684E+03
      6.609  0.6423E+01  0.4734E+03
      6.704  0.3146E+01  0.4772E+03
      6.798  0.4719E+01  0.4813E+03
      6.892  0.1692E+01  0.4848E+03
      6.986  0.3145E+01  0.4879E+03
      7.080  0.4767E+01  0.4924E+03
      7.175  0.4705E+01  0.4976E+03
      7.269  0.6551E+01  0.5000E+03
      7.363  0.7477E+01  0.5050E+03
      7.457  0.1573E+01  0.5096E+03
      7.551  0.0000E+00  0.5115E+03
      7.645  0.0000E+00  0.5120E+03
      7.740  0.0000E+00  0.5120E+03
      7.834  0.0000E+00  0.5120E+03
      7.928  0.0000E+00  0.5120E+03
      8.022  0.0000E+00  0.5120E+03
      8.116  0.0000E+00  0.5120E+03
      8.211  0.0000E+00  0.5120E+03
      8.305  0.0000E+00  0.5120E+03
      8.399  0.0000E+00  0.5120E+03
      8.493  0.0000E+00  0.5120E+03
      8.587  0.0000E+00  0.5120E+03
      8.681  0.0000E+00  0.5120E+03
      8.776  0.0000E+00  0.5120E+03
      8.870  0.0000E+00  0.5120E+03
