 running on   24 total cores
 distrk:  each k-point on   24 cores,    1 groups
 distr:  one band on    3 cores,    8 groups
 using from now: INCAR     
 vasp.5.4.1 24Jun15 (build Nov 25 2015 16:01:35) complex                        
  
 POSCAR found type information on POSCAR  C  N  H  Pb I 
 POSCAR found :  5 types and      96 ions
 scaLAPACK will be used

 ----------------------------------------------------------------------------- 
|                                                                             |
|  ADVICE TO THIS USER RUNNING 'VASP/VAMP'   (HEAR YOUR MASTER'S VOICE ...):  |
|                                                                             |
|      You have a (more or less) 'large supercell' and for larger cells       |
|      it might be more efficient to use real space projection opertators     |
|      So try LREAL= Auto  in the INCAR   file.                               |
|      Mind: At the moment your POTCAR file does not contain real space       |
|       projectors, and has to be modified,  BUT if you                       |
|      want to do an extremely  accurate calculation you might also keep the  |
|      reciprocal projection scheme          (i.e. LREAL=.FALSE.)             |
|                                                                             |
 ----------------------------------------------------------------------------- 


 ----------------------------------------------------------------------------- 
|                                                                             |
|  ADVICE TO THIS USER RUNNING 'VASP/VAMP'   (HEAR YOUR MASTER'S VOICE ...):  |
|                                                                             |
|      You enforced a specific xc-type in the INCAR file,                     |
|      a different type was found on the POTCAR file                          |
|          I HOPE YOU KNOW, WHAT YOU ARE  DOING                               |
|                                                                             |
 ----------------------------------------------------------------------------- 

 LDA part: xc-table for Pade appr. of Perdew
 POSCAR, INCAR and KPOINTS ok, starting setup
 WARNING: small aliasing (wrap around) errors must be expected
 FFT: planning ...
 WAVECAR not read
 entering main loop
       N       E                     dE             d eps       ncg     rms          rms(c)
DAV:   1     0.359325459857E+04    0.35933E+04   -0.18941E+05  7176   0.170E+03
DAV:   2     0.197686763245E+03   -0.33956E+04   -0.31950E+04  8016   0.354E+02
DAV:   3    -0.398348446139E+03   -0.59604E+03   -0.58746E+03  9480   0.171E+02
DAV:   4    -0.438151515691E+03   -0.39803E+02   -0.39633E+02  9656   0.488E+01
DAV:   5    -0.439630744438E+03   -0.14792E+01   -0.14770E+01  9784   0.912E+00    0.293E+01
DAV:   6    -0.419453099028E+03    0.20178E+02   -0.40831E+01  9784   0.104E+01    0.155E+01
DAV:   7    -0.417005404565E+03    0.24477E+01   -0.14506E+01 10216   0.639E+00    0.771E+00
DAV:   8    -0.416830452753E+03    0.17495E+00   -0.30570E+00  8592   0.321E+00    0.181E+00
DAV:   9    -0.416760573449E+03    0.69879E-01   -0.72889E-01  9384   0.173E+00    0.725E-01
DAV:  10    -0.416772645106E+03   -0.12072E-01   -0.11258E-01  8896   0.587E-01    0.476E-01
DAV:  11    -0.416772089774E+03    0.55533E-03   -0.13937E-02  9720   0.278E-01    0.212E-01
DAV:  12    -0.416773461261E+03   -0.13715E-02   -0.10356E-02  9904   0.163E-01    0.109E-01
DAV:  13    -0.416773622743E+03   -0.16148E-03   -0.14337E-03  8312   0.811E-02    0.768E-02
DAV:  14    -0.416773675989E+03   -0.53246E-04   -0.28154E-04  8696   0.297E-02    0.372E-02
DAV:  15    -0.416773721331E+03   -0.45341E-04   -0.21431E-04  8168   0.242E-02    0.147E-02
DAV:  16    -0.416773725618E+03   -0.42875E-05   -0.23490E-05 10080   0.103E-02    0.151E-02
DAV:  17    -0.416773725243E+03    0.37550E-06   -0.35346E-06  8048   0.348E-03    0.793E-03
DAV:  18    -0.416773724979E+03    0.26343E-06   -0.12503E-05  9080   0.560E-03    0.348E-03
DAV:  19    -0.416773725109E+03   -0.12986E-06   -0.13272E-06  8192   0.262E-03    0.317E-03
DAV:  20    -0.416773725106E+03    0.34051E-08   -0.38076E-07  8208   0.107E-03    0.846E-04
DAV:  21    -0.416773725168E+03   -0.62628E-07   -0.12147E-07  7800   0.610E-04    0.417E-04
DAV:  22    -0.416773725153E+03    0.15014E-07   -0.85444E-09  5056   0.308E-04    0.260E-04
DAV:  23    -0.416773725152E+03    0.16735E-08   -0.83509E-10  4696   0.199E-04
   1 F= -.41677373E+03 E0= -.41677373E+03  d E =0.000000E+00
Application 22054666 resources: utime ~182480s, stime ~154s, Rss ~640360, inblocks ~184891, outblocks ~194557
