  96  96   0   0
  0.2080188E+02  0.1257760E-08  0.1245754E-08  0.1274818E-08  0.5000000E-15
  1.000000000000000E-004
  CAR 
 MAPbI3-Cubic                            
     10.73239778    -19.60574708  301      1.55510896      1.00000000
    -19.606  0.0000E+00  0.0000E+00
    -19.505  0.0000E+00  0.0000E+00
    -19.403  0.0000E+00  0.0000E+00
    -19.302  0.0000E+00  0.0000E+00
    -19.201  0.0000E+00  0.0000E+00
    -19.100  0.0000E+00  0.0000E+00
    -18.999  0.0000E+00  0.0000E+00
    -18.898  0.0000E+00  0.0000E+00
    -18.797  0.0000E+00  0.0000E+00
    -18.696  0.0000E+00  0.0000E+00
    -18.594  0.0000E+00  0.0000E+00
    -18.493  0.0000E+00  0.0000E+00
    -18.392  0.0000E+00  0.0000E+00
    -18.291  0.0000E+00  0.0000E+00
    -18.190  0.0000E+00  0.1600E+02
    -18.089  0.0000E+00  0.1600E+02
    -17.988  0.0000E+00  0.1600E+02
    -17.887  0.0000E+00  0.1600E+02
    -17.785  0.0000E+00  0.1600E+02
    -17.684  0.0000E+00  0.1600E+02
    -17.583  0.0000E+00  0.1600E+02
    -17.482  0.0000E+00  0.1600E+02
    -17.381  0.0000E+00  0.1600E+02
    -17.280  0.0000E+00  0.1600E+02
    -17.179  0.0000E+00  0.1600E+02
    -17.078  0.0000E+00  0.1600E+02
    -16.976  0.0000E+00  0.1600E+02
    -16.875  0.0000E+00  0.1600E+02
    -16.774  0.0000E+00  0.1600E+02
    -16.673  0.0000E+00  0.1600E+02
    -16.572  0.0000E+00  0.1600E+02
    -16.471  0.0000E+00  0.1600E+02
    -16.370  0.0000E+00  0.4800E+02
    -16.269  0.0000E+00  0.4800E+02
    -16.167  0.0000E+00  0.4800E+02
    -16.066  0.0000E+00  0.4800E+02
    -15.965  0.0000E+00  0.4800E+02
    -15.864  0.0000E+00  0.4800E+02
    -15.763  0.0000E+00  0.4800E+02
    -15.662  0.0000E+00  0.4800E+02
    -15.561  0.0000E+00  0.4800E+02
    -15.460  0.0000E+00  0.4800E+02
    -15.358  0.0000E+00  0.4800E+02
    -15.257  0.0000E+00  0.4800E+02
    -15.156  0.0000E+00  0.4800E+02
    -15.055  0.0000E+00  0.4800E+02
    -14.954  0.0000E+00  0.4800E+02
    -14.853  0.0000E+00  0.4800E+02
    -14.752  0.0000E+00  0.4800E+02
    -14.651  0.0000E+00  0.4800E+02
    -14.549  0.0000E+00  0.4800E+02
    -14.448  0.0000E+00  0.4800E+02
    -14.347  0.0000E+00  0.4800E+02
    -14.246  0.0000E+00  0.4800E+02
    -14.145  0.0000E+00  0.4800E+02
    -14.044  0.0000E+00  0.4800E+02
    -13.943  0.0000E+00  0.4800E+02
    -13.841  0.1582E+03  0.9600E+02
    -13.740  0.0000E+00  0.9600E+02
    -13.639  0.0000E+00  0.9600E+02
    -13.538  0.0000E+00  0.9600E+02
    -13.437  0.0000E+00  0.9600E+02
    -13.336  0.0000E+00  0.9600E+02
    -13.235  0.0000E+00  0.9600E+02
    -13.134  0.0000E+00  0.9600E+02
    -13.032  0.0000E+00  0.9600E+02
    -12.931  0.0000E+00  0.9600E+02
    -12.830  0.0000E+00  0.9600E+02
    -12.729  0.0000E+00  0.9600E+02
    -12.628  0.0000E+00  0.9600E+02
    -12.527  0.0000E+00  0.9600E+02
    -12.426  0.0000E+00  0.9600E+02
    -12.325  0.0000E+00  0.9600E+02
    -12.223  0.0000E+00  0.9600E+02
    -12.122  0.0000E+00  0.9600E+02
    -12.021  0.0000E+00  0.9600E+02
    -11.920  0.0000E+00  0.9600E+02
    -11.819  0.0000E+00  0.9600E+02
    -11.718  0.0000E+00  0.9600E+02
    -11.617  0.0000E+00  0.9600E+02
    -11.516  0.0000E+00  0.9600E+02
    -11.414  0.0000E+00  0.9600E+02
    -11.313  0.0000E+00  0.1040E+03
    -11.212  0.0000E+00  0.1120E+03
    -11.111  0.0000E+00  0.1120E+03
    -11.010  0.0000E+00  0.1120E+03
    -10.909  0.0000E+00  0.1120E+03
    -10.808  0.0000E+00  0.1121E+03
    -10.707  0.0000E+00  0.1141E+03
    -10.605  0.6332E+01  0.1191E+03
    -10.504  0.4303E+01  0.1257E+03
    -10.403  0.1697E+01  0.1290E+03
    -10.302  0.3143E+01  0.1360E+03
    -10.201  0.3911E+01  0.1404E+03
    -10.100  0.3040E+01  0.1445E+03
     -9.999  0.4504E+01  0.1550E+03
     -9.898  0.0000E+00  0.1600E+03
     -9.796  0.0000E+00  0.1600E+03
     -9.695  0.0000E+00  0.1600E+03
     -9.594  0.0000E+00  0.1600E+03
     -9.493  0.0000E+00  0.1600E+03
     -9.392  0.0000E+00  0.1600E+03
     -9.291  0.0000E+00  0.1600E+03
     -9.190  0.0000E+00  0.1600E+03
     -9.089  0.0000E+00  0.1600E+03
     -8.987  0.0000E+00  0.1600E+03
     -8.886  0.0000E+00  0.1600E+03
     -8.785  0.0000E+00  0.1600E+03
     -8.684  0.0000E+00  0.1600E+03
     -8.583  0.0000E+00  0.1600E+03
     -8.482  0.0000E+00  0.1600E+03
     -8.381  0.0000E+00  0.1600E+03
     -8.280  0.0000E+00  0.1600E+03
     -8.178  0.0000E+00  0.1600E+03
     -8.077  0.0000E+00  0.1600E+03
     -7.976  0.0000E+00  0.1600E+03
     -7.875  0.0000E+00  0.1600E+03
     -7.774  0.0000E+00  0.1600E+03
     -7.673  0.1630E+02  0.1696E+03
     -7.572  0.5810E+02  0.1902E+03
     -7.470  0.0000E+00  0.1920E+03
     -7.369  0.0000E+00  0.1920E+03
     -7.268  0.0000E+00  0.1920E+03
     -7.167  0.0000E+00  0.1920E+03
     -7.066  0.0000E+00  0.1920E+03
     -6.965  0.0000E+00  0.1920E+03
     -6.864  0.0000E+00  0.1921E+03
     -6.763  0.0000E+00  0.1925E+03
     -6.661  0.0000E+00  0.1934E+03
     -6.560  0.1047E+01  0.1941E+03
     -6.459  0.0000E+00  0.1944E+03
     -6.358  0.3822E-14  0.1964E+03
     -6.257  0.0000E+00  0.1988E+03
     -6.156  0.2926E+01  0.2003E+03
     -6.055  0.4418E+01  0.2022E+03
     -5.954  0.1931E-01  0.2036E+03
     -5.852  0.2905E+01  0.2064E+03
     -5.751  0.2930E+01  0.2147E+03
     -5.650  0.0000E+00  0.2226E+03
     -5.549  0.0000E+00  0.2235E+03
     -5.448  0.0000E+00  0.2239E+03
     -5.347  0.0000E+00  0.2239E+03
     -5.246  0.0000E+00  0.2240E+03
     -5.145  0.0000E+00  0.2240E+03
     -5.043  0.0000E+00  0.2240E+03
     -4.942  0.0000E+00  0.2240E+03
     -4.841  0.0000E+00  0.2240E+03
     -4.740  0.0000E+00  0.2240E+03
     -4.639  0.0000E+00  0.2240E+03
     -4.538  0.0000E+00  0.2240E+03
     -4.437  0.0000E+00  0.2240E+03
     -4.336  0.0000E+00  0.2240E+03
     -4.234  0.0000E+00  0.2240E+03
     -4.133  0.0000E+00  0.2240E+03
     -4.032  0.0000E+00  0.2240E+03
     -3.931  0.0000E+00  0.2240E+03
     -3.830  0.0000E+00  0.2240E+03
     -3.729  0.0000E+00  0.2240E+03
     -3.628  0.2118E+01  0.2242E+03
     -3.527  0.8273E+01  0.2448E+03
     -3.425  0.0000E+00  0.2560E+03
     -3.324  0.0000E+00  0.2560E+03
     -3.223  0.0000E+00  0.2560E+03
     -3.122  0.0000E+00  0.2560E+03
     -3.021  0.0000E+00  0.2560E+03
     -2.920  0.0000E+00  0.2560E+03
     -2.819  0.0000E+00  0.2560E+03
     -2.718  0.0000E+00  0.2560E+03
     -2.616  0.0000E+00  0.2560E+03
     -2.515  0.0000E+00  0.2560E+03
     -2.414  0.0000E+00  0.2560E+03
     -2.313  0.0000E+00  0.2560E+03
     -2.212  0.0000E+00  0.2560E+03
     -2.111  0.2723E+01  0.2578E+03
     -2.010  0.2198E+01  0.2609E+03
     -1.908  0.1465E+01  0.2635E+03
     -1.807  0.2194E+01  0.2664E+03
     -1.706  0.5563E+01  0.2703E+03
     -1.605  0.1541E+01  0.2736E+03
     -1.504  0.4716E+01  0.2775E+03
     -1.403  0.2132E+00  0.2796E+03
     -1.302  0.0000E+00  0.2800E+03
     -1.201  0.4394E+01  0.2823E+03
     -1.099  0.7325E+00  0.2856E+03
     -0.998  0.7282E+01  0.2899E+03
     -0.897  0.2933E+01  0.2949E+03
     -0.796  0.7228E+00  0.2986E+03
     -0.695  0.1134E+01  0.3018E+03
     -0.594  0.2188E+01  0.3050E+03
     -0.493  0.5818E+01  0.3101E+03
     -0.392  0.5706E+01  0.3170E+03
     -0.290  0.1465E+01  0.3207E+03
     -0.189  0.4593E+01  0.3257E+03
     -0.088  0.6433E+01  0.3326E+03
      0.013  0.5015E+01  0.3411E+03
      0.114  0.7384E+01  0.3496E+03
      0.215  0.1473E+01  0.3530E+03
      0.316  0.6531E+01  0.3581E+03
      0.417  0.5012E+01  0.3630E+03
      0.519  0.7720E+01  0.3694E+03
      0.620  0.4514E+01  0.3761E+03
      0.721  0.7063E+01  0.3832E+03
      0.822  0.4729E+01  0.3906E+03
      0.923  0.1461E+01  0.3944E+03
      1.024  0.1465E+01  0.3967E+03
      1.125  0.2197E+01  0.3983E+03
      1.226  0.9496E-12  0.3993E+03
      1.328  0.1465E+01  0.3997E+03
      1.429  0.0000E+00  0.3999E+03
      1.530  0.0000E+00  0.4000E+03
      1.631  0.0000E+00  0.4000E+03
      1.732  0.0000E+00  0.4000E+03
      1.833  0.0000E+00  0.4000E+03
      1.934  0.0000E+00  0.4000E+03
      2.035  0.0000E+00  0.4000E+03
      2.137  0.0000E+00  0.4000E+03
      2.238  0.0000E+00  0.4001E+03
      2.339  0.7325E+00  0.4001E+03
      2.440  0.0000E+00  0.4003E+03
      2.541  0.0000E+00  0.4004E+03
      2.642  0.5693E-15  0.4006E+03
      2.743  0.0000E+00  0.4011E+03
      2.844  0.7298E+00  0.4017E+03
      2.946  0.0000E+00  0.4021E+03
      3.047  0.0000E+00  0.4028E+03
      3.148  0.7440E+00  0.4038E+03
      3.249  0.1465E+01  0.4046E+03
      3.350  0.1281E-01  0.4053E+03
      3.451  0.1123E+01  0.4064E+03
      3.552  0.0000E+00  0.4081E+03
      3.653  0.2055E+01  0.4092E+03
      3.755  0.7325E+00  0.4093E+03
      3.856  0.9625E+00  0.4106E+03
      3.957  0.5191E-10  0.4119E+03
      4.058  0.0000E+00  0.4133E+03
      4.159  0.2820E+01  0.4144E+03
      4.260  0.1465E+01  0.4166E+03
      4.361  0.2197E+01  0.4184E+03
      4.463  0.1141E+01  0.4200E+03
      4.564  0.2807E+01  0.4214E+03
      4.665  0.6125E-02  0.4222E+03
      4.766  0.0000E+00  0.4231E+03
      4.867  0.0000E+00  0.4240E+03
      4.968  0.0000E+00  0.4248E+03
      5.069  0.7325E+00  0.4252E+03
      5.170  0.2930E+01  0.4264E+03
      5.272  0.7325E+00  0.4276E+03
      5.373  0.9008E+00  0.4291E+03
      5.474  0.2092E-03  0.4321E+03
      5.575  0.2447E+01  0.4354E+03
      5.676  0.5556E+01  0.4380E+03
      5.777  0.1356E+01  0.4401E+03
      5.878  0.9522E+00  0.4425E+03
      5.979  0.3548E+01  0.4457E+03
      6.081  0.1465E+01  0.4493E+03
      6.182  0.3844E+01  0.4534E+03
      6.283  0.3623E+01  0.4578E+03
      6.384  0.3856E+01  0.4619E+03
      6.485  0.3671E+01  0.4666E+03
      6.586  0.3451E+01  0.4721E+03
      6.687  0.1568E+01  0.4772E+03
      6.788  0.6628E+01  0.4810E+03
      6.890  0.6400E+01  0.4856E+03
      6.991  0.3662E+01  0.4887E+03
      7.092  0.1956E+01  0.4921E+03
      7.193  0.5481E+01  0.4983E+03
      7.294  0.3096E+01  0.5029E+03
      7.395  0.4373E+01  0.5078E+03
      7.496  0.5296E+01  0.5119E+03
      7.597  0.2197E+01  0.5162E+03
      7.699  0.2930E+01  0.5210E+03
      7.800  0.2878E+01  0.5267E+03
      7.901  0.2297E+01  0.5319E+03
      8.002  0.2308E+01  0.5378E+03
      8.103  0.3452E+01  0.5421E+03
      8.204  0.3766E+01  0.5476E+03
      8.305  0.5974E+01  0.5531E+03
      8.406  0.2959E+01  0.5590E+03
      8.508  0.5615E+01  0.5654E+03
      8.609  0.3103E+01  0.5717E+03
      8.710  0.3191E+01  0.5772E+03
      8.811  0.5129E+01  0.5829E+03
      8.912  0.7398E+01  0.5898E+03
      9.013  0.4921E+01  0.5958E+03
      9.114  0.6727E+01  0.5996E+03
      9.215  0.1684E+01  0.6041E+03
      9.317  0.1893E+01  0.6076E+03
      9.418  0.0000E+00  0.6080E+03
      9.519  0.0000E+00  0.6080E+03
      9.620  0.0000E+00  0.6080E+03
      9.721  0.0000E+00  0.6080E+03
      9.822  0.0000E+00  0.6080E+03
      9.923  0.0000E+00  0.6080E+03
     10.025  0.0000E+00  0.6080E+03
     10.126  0.0000E+00  0.6080E+03
     10.227  0.0000E+00  0.6080E+03
     10.328  0.0000E+00  0.6080E+03
     10.429  0.0000E+00  0.6080E+03
     10.530  0.0000E+00  0.6080E+03
     10.631  0.0000E+00  0.6080E+03
     10.732  0.0000E+00  0.6080E+03
