       N       E                     dE             d eps       ncg     rms          rms(c)
DAV:   1     0.421917581546E+04    0.42192E+04   -0.19277E+05 32912   0.144E+03
DAV:   2     0.830040572556E+03   -0.33891E+04   -0.31342E+04 36112   0.318E+02
DAV:   3     0.230511776208E+03   -0.59953E+03   -0.58067E+03 45264   0.153E+02
DAV:   4     0.187792750221E+03   -0.42719E+02   -0.41775E+02 45584   0.419E+01
DAV:   5     0.185944032377E+03   -0.18487E+01   -0.18442E+01 51328   0.896E+00    0.979E+01
DAV:   6     0.553561277129E+02   -0.13059E+03   -0.15321E+03 37376   0.498E+01    0.488E+01
DAV:   7    -0.936520329957E+02   -0.14901E+03   -0.15930E+02 39440   0.215E+01    0.284E+01
DAV:   8    -0.202231012511E+03   -0.10858E+03   -0.65068E+01 37936   0.129E+01    0.183E+01
DAV:   9    -0.334335185034E+03   -0.13210E+03   -0.12343E+02 36352   0.160E+01    0.915E+00
DAV:  10    -0.381438922694E+03   -0.47104E+02   -0.46508E+01 37088   0.102E+01    0.661E+00
DAV:  11    -0.410670752416E+03   -0.29232E+02   -0.40347E+01 38960   0.818E+00    0.378E+00
DAV:  12    -0.421188161572E+03   -0.10517E+02   -0.16089E+01 41216   0.530E+00    0.252E+00
DAV:  13    -0.422878669591E+03   -0.16905E+01   -0.24635E+00 39920   0.251E+00    0.206E+00
DAV:  14    -0.423492186688E+03   -0.61352E+00   -0.92482E-01 38896   0.133E+00    0.109E+00
DAV:  15    -0.423544067107E+03   -0.51880E-01   -0.17160E-01 43904   0.690E-01    0.617E-01
DAV:  16    -0.423549897980E+03   -0.58309E-02   -0.24995E-02 41888   0.298E-01    0.394E-01
DAV:  17    -0.423553161316E+03   -0.32633E-02   -0.92298E-03 39280   0.162E-01    0.216E-01
DAV:  18    -0.423554710554E+03   -0.15492E-02   -0.28134E-03 41264   0.898E-02    0.842E-02
DAV:  19    -0.423555095200E+03   -0.38465E-03   -0.62755E-04 40784   0.475E-02    0.445E-02
DAV:  20    -0.423555353850E+03   -0.25865E-03   -0.20297E-04 38320   0.275E-02    0.238E-02
DAV:  21    -0.423555477593E+03   -0.12374E-03   -0.12135E-04 38736   0.184E-02    0.141E-02
DAV:  22    -0.423555485978E+03   -0.83852E-05   -0.17742E-05 45248   0.818E-03    0.102E-02
DAV:  23    -0.423555487690E+03   -0.17121E-05   -0.66158E-06 39696   0.394E-03    0.401E-03
DAV:  24    -0.423555489991E+03   -0.23006E-05   -0.24966E-06 37808   0.282E-03    0.172E-03
DAV:  25    -0.423555490076E+03   -0.85245E-07   -0.62819E-07 42656   0.133E-03    0.135E-03
DAV:  26    -0.423555490057E+03    0.19143E-07   -0.11136E-07 48112   0.603E-04    0.988E-04
DAV:  27    -0.423555489995E+03    0.62006E-07   -0.34078E-08 41280   0.331E-04    0.357E-04
DAV:  28    -0.423555489898E+03    0.97134E-07   -0.23328E-08 39040   0.259E-04    0.288E-04
DAV:  29    -0.423555489899E+03   -0.15680E-08   -0.35299E-09 42704   0.118E-04    0.202E-04
DAV:  30    -0.423555489917E+03   -0.17379E-07   -0.16462E-09 36384   0.793E-05    0.772E-05
DAV:  31    -0.423555489920E+03   -0.36089E-08   -0.19025E-10 42128   0.503E-05    0.833E-05
DAV:  32    -0.423555489924E+03   -0.40382E-08    0.40286E-10 40912   0.271E-05    0.445E-05
DAV:  33    -0.423555489927E+03   -0.24702E-08    0.37537E-10 31232   0.154E-05    0.179E-05
DAV:  34    -0.423555489926E+03    0.47658E-09    0.33019E-10 29200   0.101E-05    0.971E-06
DAV:  35    -0.423555489927E+03   -0.61846E-09    0.33522E-10 24448   0.652E-06    0.554E-06
DAV:  36    -0.423555489927E+03   -0.13824E-09    0.13704E-11 23424   0.513E-06    0.273E-06
DAV:  37    -0.423555489927E+03   -0.13824E-09    0.35443E-10 22336   0.383E-06    0.126E-06
DAV:  38    -0.423555489927E+03    0.90949E-10   -0.38103E-11 22480   0.243E-06
   1 F= -.42355549E+03 E0= -.42355549E+03  d E =0.000000E+00  mag=    -0.0000    -0.0000    -0.0000
