 vasp.5.4.1 24Jun15 (build Nov 25 2015 16:39:35) complex                        
  
 executed on         CrayXC-Intel date 2016.07.09  11:04:45
 running on 3456 total cores
 distrk:  each k-point on  192 cores,   18 groups
 distr:  one band on NCORES_PER_BAND=  12 cores,   16 groups


--------------------------------------------------------------------------------------------------------


 INCAR:
 POTCAR:    PAW_PBE C 08Apr2002                   
 POTCAR:    PAW_PBE N 08Apr2002                   
 POTCAR:    PAW_PBE H 15Jun2001                   
 POTCAR:    PAW_PBE Pb_d 06Sep2000                
 POTCAR:    PAW_PBE I 08Apr2002                   

 ----------------------------------------------------------------------------- 
|                                                                             |
|           W    W    AA    RRRRR   N    N  II  N    N   GGGG   !!!           |
|           W    W   A  A   R    R  NN   N  II  NN   N  G    G  !!!           |
|           W    W  A    A  R    R  N N  N  II  N N  N  G       !!!           |
|           W WW W  AAAAAA  RRRRR   N  N N  II  N  N N  G  GGG   !            |
|           WW  WW  A    A  R   R   N   NN  II  N   NN  G    G                |
|           W    W  A    A  R    R  N    N  II  N    N   GGGG   !!!           |
|                                                                             |
|      For optimal performance we recommend to set                            |
|        NCORE= 4 - approx SQRT( number of cores)                             |
|      NCORE specifies how many cores store one orbital (NPAR=cpu/NCORE).     |
|      This setting can  greatly improve the performance of VASP for DFT.     |
|      The default, NPAR=number of cores might be grossly inefficient         |
|      on modern multi-core architectures or massively parallel machines.     |
|      Do your own testing !!!!                                               |
|      Unfortunately you need to use the default for GW and RPA calculations. |
|      (for HF NCORE is supported but not extensively tested yet)             |
|                                                                             |
 ----------------------------------------------------------------------------- 


 ----------------------------------------------------------------------------- 
|                                                                             |
|           W    W    AA    RRRRR   N    N  II  N    N   GGGG   !!!           |
|           W    W   A  A   R    R  NN   N  II  NN   N  G    G  !!!           |
|           W    W  A    A  R    R  N N  N  II  N N  N  G       !!!           |
|           W WW W  AAAAAA  RRRRR   N  N N  II  N  N N  G  GGG   !            |
|           WW  WW  A    A  R   R   N   NN  II  N   NN  G    G                |
|           W    W  A    A  R    R  N    N  II  N    N   GGGG   !!!           |
|                                                                             |
|      You have enabled k-point parallelism (KPAR>1).                         |
|      This developmental code was originally  written by Paul Kent at ORNL,  |
|      and carefully double checked in Vienna.                                |
|      GW as well as linear response parallelism added by Martijn Marsman     |
|      and Georg Kresse.                                                      |
|      Carefully verify results versus KPAR=1.                                |
|      Report problems to Paul Kent and Vienna.                               |
|                                                                             |
 ----------------------------------------------------------------------------- 

 POTCAR:    PAW_PBE C 08Apr2002                   
   VRHFIN =C: s2p2                                                              
   LEXCH  = PE                                                                  
   EATOM  =   147.1560 eV,   10.8157 Ry                                         
                                                                                
   TITEL  = PAW_PBE C 08Apr2002                                                 
   LULTRA =        F    use ultrasoft PP ?                                      
   IUNSCR =        1    unscreen: 0-lin 1-nonlin 2-no                           
   RPACOR =    1.200    partial core radius                                     
   POMASS =   12.011; ZVAL   =    4.000    mass and valenz                      
   RCORE  =    1.500    outmost cutoff radius                                   
   RWIGS  =    1.630; RWIGS  =    0.863    wigner-seitz radius (au A)           
   ENMAX  =  400.000; ENMIN  =  300.000 eV                                      
   ICORE  =        2    local potential                                         
   LCOR   =        T    correct aug charges                                     
   LPAW   =        T    paw PP                                                  
   EAUG   =  644.873                                                            
   DEXC   =    0.000                                                            
   RMAX   =    1.529    core radius for proj-oper                               
   RAUG   =    1.300    factor for augmentation sphere                          
   RDEP   =    1.501    radius for radial grids                                 
   RDEPT  =    1.300    core radius for aug-charge                              
                                                                                
   Atomic configuration                                                         
    4 entries                                                                   
     n  l   j            E        occ.                                          
     1  0  0.50      -273.3789   2.0000                                         
     2  0  0.50       -13.7508   2.0000                                         
     2  1  0.50        -5.2854   2.0000                                         
     3  2  1.50        -5.4423   0.0000                                         
   Description                                                                  
     l       E           TYP  RCUT    TYP  RCUT                                 
     0    -13.7508458     23  1.200                                             
     0     -8.2022199     23  1.200                                             
     1     -5.2854383     23  1.500                                             
     1     34.0145650     23  1.500                                             
     2     -5.4423304      7  1.500                                             
  local pseudopotential read in
  partial core-charges read in
  partial kinetic energy density read in
  atomic valenz-charges read in
  non local Contribution for L=           0  read in
    real space projection operators read in
  non local Contribution for L=           0  read in
    real space projection operators read in
  non local Contribution for L=           1  read in
    real space projection operators read in
  non local Contribution for L=           1  read in
    real space projection operators read in
    PAW grid and wavefunctions read in
 
   number of l-projection  operators is LMAX  =           4
   number of lm-projection operators is LMMAX =           8
 
 POTCAR:    PAW_PBE N 08Apr2002                   
   VRHFIN =N: s2p3                                                              
   LEXCH  = PE                                                                  
   EATOM  =   264.5486 eV,   19.4438 Ry                                         
                                                                                
   TITEL  = PAW_PBE N 08Apr2002                                                 
   LULTRA =        F    use ultrasoft PP ?                                      
   IUNSCR =        1    unscreen: 0-lin 1-nonlin 2-no                           
   RPACOR =    1.200    partial core radius                                     
   POMASS =   14.001; ZVAL   =    5.000    mass and valenz                      
   RCORE  =    1.500    outmost cutoff radius                                   
   RWIGS  =    1.400; RWIGS  =    0.741    wigner-seitz radius (au A)           
   ENMAX  =  400.000; ENMIN  =  300.000 eV                                      
   ICORE  =        2    local potential                                         
   LCOR   =        T    correct aug charges                                     
   LPAW   =        T    paw PP                                                  
   EAUG   =  627.112                                                            
   DEXC   =    0.000                                                            
   RMAX   =    1.529    core radius for proj-oper                               
   RAUG   =    1.300    factor for augmentation sphere                          
   RDEP   =    1.514    radius for radial grids                                 
   RDEPT  =    1.338    core radius for aug-charge                              
                                                                                
   Atomic configuration                                                         
    4 entries                                                                   
     n  l   j            E        occ.                                          
     1  0  0.50      -384.7179   2.0000                                         
     2  0  0.50       -18.5828   2.0000                                         
     2  1  0.50        -7.0898   3.0000                                         
     3  2  1.50        -6.8029   0.0000                                         
   Description                                                                  
     l       E           TYP  RCUT    TYP  RCUT                                 
     0    -18.5828119     23  1.200                                             
     0    -13.5018863     23  1.200                                             
     1     -7.0897853     23  1.500                                             
     1      9.5240782     23  1.500                                             
     2     -6.8029130      7  1.500                                             
  local pseudopotential read in
  partial core-charges read in
  partial kinetic energy density read in
  atomic valenz-charges read in
  non local Contribution for L=           0  read in
    real space projection operators read in
  non local Contribution for L=           0  read in
    real space projection operators read in
  non local Contribution for L=           1  read in
    real space projection operators read in
  non local Contribution for L=           1  read in
    real space projection operators read in
    PAW grid and wavefunctions read in
 
   number of l-projection  operators is LMAX  =           4
   number of lm-projection operators is LMMAX =           8
 
 POTCAR:    PAW_PBE H 15Jun2001                   
   VRHFIN =H: ultrasoft test                                                    
   LEXCH  = PE                                                                  
   EATOM  =    12.4884 eV,    0.9179 Ry                                         
                                                                                
   TITEL  = PAW_PBE H 15Jun2001                                                 
   LULTRA =        F    use ultrasoft PP ?                                      
   IUNSCR =        0    unscreen: 0-lin 1-nonlin 2-no                           
   RPACOR =    0.000    partial core radius                                     
   POMASS =    1.000; ZVAL   =    1.000    mass and valenz                      
   RCORE  =    1.100    outmost cutoff radius                                   
   RWIGS  =    0.700; RWIGS  =    0.370    wigner-seitz radius (au A)           
   ENMAX  =  250.000; ENMIN  =  200.000 eV                                      
   RCLOC  =    0.701    cutoff for local pot                                    
   LCOR   =        T    correct aug charges                                     
   LPAW   =        T    paw PP                                                  
   EAUG   =  400.000                                                            
   RMAX   =    1.123    core radius for proj-oper                               
   RAUG   =    1.200    factor for augmentation sphere                          
   RDEP   =    1.112    radius for radial grids                                 
   RDEPT  =    0.926    core radius for aug-charge                              
                                                                                
   Atomic configuration                                                         
    2 entries                                                                   
     n  l   j            E        occ.                                          
     1  0  0.50        -6.4927   1.0000                                         
     2  1  0.50        -3.4015   0.0000                                         
   Description                                                                  
     l       E           TYP  RCUT    TYP  RCUT                                 
     0     -6.4927494     23  1.100                                             
     0      6.8029130     23  1.100                                             
     1     -4.0817478     23  1.100                                             
  local pseudopotential read in
  atomic valenz-charges read in
  non local Contribution for L=           0  read in
    real space projection operators read in
  non local Contribution for L=           0  read in
    real space projection operators read in
  non local Contribution for L=           1  read in
    real space projection operators read in
    PAW grid and wavefunctions read in
 
   number of l-projection  operators is LMAX  =           3
   number of lm-projection operators is LMMAX =           5
 
 POTCAR:    PAW_PBE Pb_d 06Sep2000                
   VRHFIN =Pb:                                                                  
   LEXCH  = PE                                                                  
   EATOM  =  1661.6185 eV,  122.1255 Ry                                         
                                                                                
   TITEL  = PAW_PBE Pb_d 06Sep2000                                              
   LULTRA =        F    use ultrasoft PP ?                                      
   IUNSCR =        1    unscreen: 0-lin 1-nonlin 2-no                           
   RPACOR =    2.200    partial core radius                                     
   POMASS =  207.200; ZVAL   =   14.000    mass and valenz                      
   RCORE  =    2.500    outmost cutoff radius                                   
   RWIGS  =    3.260; RWIGS  =    1.725    wigner-seitz radius (au A)           
   ENMAX  =  237.835; ENMIN  =  178.376 eV                                      
   ICORE  =        3    local potential                                         
   LCOR   =        T    correct aug charges                                     
   LPAW   =        T    paw PP                                                  
   EAUG   =  391.914                                                            
   DEXC   =    0.000                                                            
   RMAX   =    2.565    core radius for proj-oper                               
   RAUG   =    1.300    factor for augmentation sphere                          
   RDEP   =    2.643    radius for radial grids                                 
   RDEPT  =    2.092    core radius for aug-charge                              
                                                                                
   Atomic configuration                                                         
   16 entries                                                                   
     n  l   j            E        occ.                                          
     1  0  0.50    -88091.8466   2.0000                                         
     2  0  0.50    -15753.4197   2.0000                                         
     2  1  1.50    -13508.1797   6.0000                                         
     3  0  0.50     -3781.7194   2.0000                                         
     3  1  1.50     -3138.2529   6.0000                                         
     3  2  2.50     -2483.2977  10.0000                                         
     4  0  0.50      -856.2895   2.0000                                         
     4  1  1.50      -645.4942   6.0000                                         
     4  2  2.50      -401.8768  10.0000                                         
     4  3  3.50      -132.9059  14.0000                                         
     5  0  0.50      -144.0950   2.0000                                         
     5  1  1.50       -85.7879   6.0000                                         
     5  2  2.50       -21.1769  10.0000                                         
     6  0  0.50       -12.0372   2.0000                                         
     6  1  1.50        -3.4971   2.0000                                         
     5  3  2.50        -2.7212   0.0000                                         
   Description                                                                  
     l       E           TYP  RCUT    TYP  RCUT                                 
     2    -21.1768523     23  2.500                                             
     2      1.3605826     23  2.500                                             
     0    -12.0371562     23  2.500                                             
     0     13.6058260     23  2.500                                             
     1     -3.4971339     23  2.500                                             
     1     13.6058260     23  2.500                                             
     3     -1.3605826      7  2.500                                             
  local pseudopotential read in
  partial core-charges read in
  partial kinetic energy density read in
  atomic valenz-charges read in
  non local Contribution for L=           2  read in
    real space projection operators read in
  non local Contribution for L=           2  read in
    real space projection operators read in
  non local Contribution for L=           0  read in
    real space projection operators read in
  non local Contribution for L=           0  read in
    real space projection operators read in
  non local Contribution for L=           1  read in
    real space projection operators read in
  non local Contribution for L=           1  read in
    real space projection operators read in
    PAW grid and wavefunctions read in
 
   number of l-projection  operators is LMAX  =           6
   number of lm-projection operators is LMMAX =          18
 
 POTCAR:    PAW_PBE I 08Apr2002                   
   VRHFIN =I : s2p5                                                             
   LEXCH  = PE                                                                  
   EATOM  =   315.8678 eV,   23.2156 Ry                                         
                                                                                
   TITEL  = PAW_PBE I 08Apr2002                                                 
   LULTRA =        F    use ultrasoft PP ?                                      
   IUNSCR =        1    unscreen: 0-lin 1-nonlin 2-no                           
   RPACOR =    2.200    partial core radius                                     
   POMASS =  126.904; ZVAL   =    7.000    mass and valenz                      
   RCORE  =    2.300    outmost cutoff radius                                   
   RWIGS  =    2.810; RWIGS  =    1.487    wigner-seitz radius (au A)           
   ENMAX  =  175.647; ENMIN  =  131.735 eV                                      
   ICORE  =        3    local potential                                         
   LCOR   =        T    correct aug charges                                     
   LPAW   =        T    paw PP                                                  
   EAUG   =  370.139                                                            
   DEXC   =    0.000                                                            
   RMAX   =    2.359    core radius for proj-oper                               
   RAUG   =    1.300    factor for augmentation sphere                          
   RDEP   =    2.392    radius for radial grids                                 
   RDEPT  =    2.170    core radius for aug-charge                              
                                                                                
   Atomic configuration                                                         
   13 entries                                                                   
     n  l   j            E        occ.                                          
     1  0  0.50    -32976.3739   2.0000                                         
     2  0  0.50     -5094.5933   2.0000                                         
     2  1  1.50     -4572.0131   6.0000                                         
     3  0  0.50     -1028.2813   2.0000                                         
     3  1  1.50      -859.0250   6.0000                                         
     3  2  2.50      -605.7620  10.0000                                         
     4  0  0.50      -180.5540   2.0000                                         
     4  1  1.50      -127.5306   6.0000                                         
     4  2  2.50       -50.2720  10.0000                                         
     5  0  0.50       -17.4058   2.0000                                         
     5  1  0.50        -7.0851   5.0000                                         
     5  2  1.50        -7.0750   0.0000                                         
     4  3  2.50        -7.0750   0.0000                                         
   Description                                                                  
     l       E           TYP  RCUT    TYP  RCUT                                 
     0    -17.4058016     23  2.300                                             
     0    -18.7663842     23  2.300                                             
     1     -7.0850686     23  2.300                                             
     1     -4.2150896     23  2.300                                             
     2     -7.0750295     23  2.300                                             
     3     -1.3605826     23  2.300                                             
  local pseudopotential read in
  partial core-charges read in
  partial kinetic energy density read in
  atomic valenz-charges read in
  non local Contribution for L=           0  read in
    real space projection operators read in
  non local Contribution for L=           0  read in
    real space projection operators read in
  non local Contribution for L=           1  read in
    real space projection operators read in
  non local Contribution for L=           1  read in
    real space projection operators read in
  non local Contribution for L=           2  read in
    real space projection operators read in
    PAW grid and wavefunctions read in
 
   number of l-projection  operators is LMAX  =           5
   number of lm-projection operators is LMMAX =          13
 

 ----------------------------------------------------------------------------- 
|                                                                             |
|  ADVICE TO THIS USER RUNNING 'VASP/VAMP'   (HEAR YOUR MASTER'S VOICE ...):  |
|                                                                             |
|      You have a (more or less) 'large supercell' and for larger cells       |
|      it might be more efficient to use real space projection opertators     |
|      So try LREAL= Auto  in the INCAR   file.                               |
|      Mind: At the moment your POTCAR file does not contain real space       |
|       projectors, and has to be modified,  BUT if you                       |
|      want to do an extremely  accurate calculation you might also keep the  |
|      reciprocal projection scheme          (i.e. LREAL=.FALSE.)             |
|                                                                             |
 ----------------------------------------------------------------------------- 


 ----------------------------------------------------------------------------- 
|                                                                             |
|  ADVICE TO THIS USER RUNNING 'VASP/VAMP'   (HEAR YOUR MASTER'S VOICE ...):  |
|                                                                             |
|      You enforced a specific xc-type in the INCAR file,                     |
|      a different type was found on the POTCAR file                          |
|          I HOPE YOU KNOW, WHAT YOU ARE  DOING                               |
|                                                                             |
 ----------------------------------------------------------------------------- 

  PAW_PBE C 08Apr2002                   :
 energy of atom  1       EATOM= -147.1560
 kinetic energy error for atom=    0.0032 (will be added to EATOM!!)
  PAW_PBE N 08Apr2002                   :
 energy of atom  2       EATOM= -264.5486
 kinetic energy error for atom=    0.0061 (will be added to EATOM!!)
  PAW_PBE H 15Jun2001                   :
 energy of atom  3       EATOM=  -12.4884
 kinetic energy error for atom=    0.0002 (will be added to EATOM!!)
  PAW_PBE Pb_d 06Sep2000                :
 energy of atom  4       EATOM=-1661.6185
 kinetic energy error for atom=    0.0012 (will be added to EATOM!!)
  PAW_PBE I 08Apr2002                   :
 energy of atom  5       EATOM= -315.8678
 kinetic energy error for atom=    0.0003 (will be added to EATOM!!)
 
 
 POSCAR: C N H Pb I                              
  positions in direct lattice
  No initial velocities read in
 exchange correlation table for  LEXCH =       14
   RHO(1)=    0.500       N(1)  =     2000
   RHO(2)=  100.500       N(2)  =     4000
 


--------------------------------------------------------------------------------------------------------


 ion  position               nearest neighbor table
   1  0.198  0.250  0.229-  25 1.10  33 1.10  17 1.11   9 1.49
   2  0.696  0.250  0.229-  26 1.10  34 1.10  18 1.11  10 1.49
   3  0.196  0.750  0.229-  27 1.10  35 1.10  19 1.11  11 1.49
   4  0.698  0.750  0.229-  28 1.10  36 1.10  20 1.11  12 1.49
   5  0.196  0.250  0.729-  29 1.10  37 1.10  21 1.11  13 1.49
   6  0.698  0.250  0.729-  30 1.10  38 1.10  22 1.11  14 1.49
   7  0.198  0.750  0.729-  31 1.10  39 1.10  23 1.11  15 1.49
   8  0.696  0.750  0.729-  32 1.10  40 1.10  24 1.11  16 1.49
   9  0.310  0.250  0.262-  41 1.05  49 1.05  57 1.05   1 1.49
  10  0.799  0.250  0.285-  58 1.04  42 1.05  50 1.05   2 1.49
  11  0.299  0.750  0.285-  59 1.04  43 1.05  51 1.05   3 1.49
  12  0.810  0.750  0.262-  44 1.05  52 1.05  60 1.05   4 1.49
  13  0.299  0.250  0.785-  61 1.04  45 1.05  53 1.05   5 1.49
  14  0.810  0.250  0.762-  46 1.05  54 1.05  62 1.05   6 1.49
  15  0.310  0.750  0.762-  47 1.05  55 1.05  63 1.05   7 1.49
  16  0.799  0.750  0.785-  64 1.04  48 1.05  56 1.05   8 1.49
  17  0.196  0.250  0.142-   1 1.11
  18  0.714  0.250  0.144-   2 1.11
  19  0.214  0.750  0.144-   3 1.11
  20  0.696  0.750  0.142-   4 1.11
  21  0.214  0.250  0.644-   5 1.11
  22  0.696  0.250  0.642-   6 1.11
  23  0.196  0.750  0.642-   7 1.11
  24  0.714  0.750  0.644-   8 1.11
  25  0.157  0.322  0.259-   1 1.10
  26  0.651  0.322  0.252-   2 1.10
  27  0.151  0.822  0.252-   3 1.10
  28  0.657  0.822  0.259-   4 1.10
  29  0.151  0.322  0.752-   5 1.10
  30  0.657  0.322  0.759-   6 1.10
  31  0.157  0.822  0.759-   7 1.10
  32  0.651  0.822  0.752-   8 1.10
  33  0.158  0.177  0.260-   1 1.10
  34  0.651  0.177  0.252-   2 1.10
  35  0.151  0.677  0.252-   3 1.10
  36  0.658  0.677  0.260-   4 1.10
  37  0.151  0.177  0.752-   5 1.10
  38  0.658  0.177  0.760-   6 1.10
  39  0.158  0.677  0.760-   7 1.10
  40  0.651  0.677  0.752-   8 1.10
  41  0.351  0.318  0.235-   9 1.05
  42  0.845  0.318  0.266-  10 1.05
  43  0.345  0.818  0.266-  11 1.05
  44  0.851  0.818  0.235-  12 1.05
  45  0.345  0.318  0.766-  13 1.05
  46  0.851  0.318  0.735-  14 1.05
  47  0.351  0.818  0.735-  15 1.05
  48  0.845  0.818  0.766-  16 1.05
  49  0.352  0.182  0.235-   9 1.05
  50  0.845  0.182  0.266-  10 1.05
  51  0.345  0.682  0.266-  11 1.05
  52  0.852  0.682  0.235-  12 1.05
  53  0.345  0.182  0.766-  13 1.05
  54  0.852  0.182  0.735-  14 1.05
  55  0.352  0.682  0.735-  15 1.05
  56  0.845  0.682  0.766-  16 1.05
  57  0.318  0.250  0.345-   9 1.05
  58  0.788  0.250  0.367-  10 1.04
  59  0.288  0.750  0.367-  11 1.04
  60  0.818  0.750  0.345-  12 1.05
  61  0.288  0.250  0.867-  13 1.04
  62  0.818  0.250  0.845-  14 1.05
  63  0.318  0.750  0.845-  15 1.05
  64  0.788  0.750  0.867-  16 1.04
  65  0.472  0.499  0.489-  90 3.09  87 3.15  85 3.16  77 3.17  73 3.22  89 3.27
  66  0.972  0.501  0.489-  89 3.09  86 3.15  88 3.16  78 3.17  74 3.22  90 3.27
  67  0.472  0.001  0.489-  92 3.09  87 3.15  85 3.16  79 3.17  75 3.22  91 3.27
  68  0.972  0.999  0.489-  91 3.09  86 3.15  88 3.16  80 3.17  76 3.22  92 3.27
  69  0.472  0.501  0.989-  94 3.09  81 3.15  83 3.16  73 3.17  77 3.22  93 3.27
  70  0.972  0.499  0.989-  93 3.09  84 3.15  82 3.16  74 3.17  78 3.22  94 3.27
  71  0.472  0.999  0.989-  96 3.09  81 3.15  83 3.16  75 3.17  79 3.22  95 3.27
  72  0.972  0.001  0.989-  95 3.09  84 3.15  82 3.16  76 3.17  80 3.22  96 3.27
  73  0.455  0.503  0.238-  69 3.17  65 3.22
  74  0.955  0.497  0.238-  70 3.17  66 3.22
  75  0.455  0.997  0.238-  71 3.17  67 3.22
  76  0.955  0.003  0.238-  72 3.17  68 3.22
  77  0.455  0.497  0.738-  65 3.17  69 3.22
  78  0.955  0.503  0.738-  66 3.17  70 3.22
  79  0.455  0.003  0.738-  67 3.17  71 3.22
  80  0.955  0.997  0.738-  68 3.17  72 3.22
  81  0.472  0.250  0.011-  71 3.15  69 3.15
  82  0.927  0.250  0.013-  72 3.16  70 3.16
  83  0.427  0.750  0.013-  69 3.16  71 3.16
  84  0.972  0.750  0.011-  70 3.15  72 3.15
  85  0.427  0.250  0.513-  67 3.16  65 3.16
  86  0.972  0.250  0.511-  68 3.15  66 3.15
  87  0.472  0.750  0.511-  65 3.15  67 3.15
  88  0.927  0.750  0.513-  66 3.16  68 3.16
  89  0.216  0.526  0.461-  66 3.09  65 3.27
  90  0.716  0.474  0.461-  65 3.09  66 3.27
  91  0.216  0.974  0.461-  68 3.09  67 3.27
  92  0.716  0.026  0.461-  67 3.09  68 3.27
  93  0.216  0.474  0.961-  70 3.09  69 3.27
  94  0.716  0.526  0.961-  69 3.09  70 3.27
  95  0.216  0.026  0.961-  72 3.09  71 3.27
  96  0.716  0.974  0.961-  71 3.09  72 3.27
 
  LATTYP: Found a triclinic cell.
 ALAT       =    17.8238589327
 B/A-ratio  =     0.6989248630
 C/A-ratio  =     1.0156975818
 COS(alpha) =     0.0001355172
 COS(beta)  =     0.5146378593
 COS(gamma) =     0.6988877578
  
  Lattice vectors:
  
 A1 = (  -0.1406063366, -12.4576271275, -12.7466742118)
 A2 = (  -0.0011956322, -12.4575380825,   0.0007464135)
 A3 = ( -12.7162481321,  -0.0020049566, -12.8856194186)


Analysis of symmetry for initial positions (statically):
=====================================================================
 Subroutine PRICEL returns following result:
 
  LATTYP: Found a triclinic cell.
 ALAT       =     8.8524544993
 B/A-ratio  =     1.4072411401
 C/A-ratio  =     1.0225215175
 COS(alpha) =     0.0001355172
 COS(beta)  =     0.5046167836
 COS(gamma) =     0.7037964938
  
  Lattice vectors:
  
 A1 = (   6.2890165300,   6.2297269971,   0.0687261899)
 A2 = (   0.0011956322,  12.4575380825,  -0.0007464135)
 A3 = (   6.3581240661,   0.0010024783,   6.4428097093)
 
   4 primitive cells build up your supercell.
 

 Routine SETGRP: Setting up the symmetry group for a 
 triclinic supercell.


 Subroutine GETGRP returns: Found  1 space group operations
 (whereof  1 operations were pure point group operations)
 out of a pool of  2 trial point group operations.


The static configuration has the point symmetry C_1 .


Analysis of symmetry for dynamics (positions and initial velocities):
=====================================================================
 Subroutine PRICEL returns following result:
 
  LATTYP: Found a triclinic cell.
 ALAT       =     8.8524544993
 B/A-ratio  =     1.4072411401
 C/A-ratio  =     1.0225215175
 COS(alpha) =     0.0001355172
 COS(beta)  =     0.5046167836
 COS(gamma) =     0.7037964938
  
  Lattice vectors:
  
 A1 = (   6.2890165300,   6.2297269971,   0.0687261899)
 A2 = (   0.0011956322,  12.4575380825,  -0.0007464135)
 A3 = (   6.3581240661,   0.0010024783,   6.4428097093)
 
   4 primitive cells build up your supercell.
 

 Routine SETGRP: Setting up the symmetry group for a 
 triclinic supercell.


 Subroutine GETGRP returns: Found  1 space group operations
 (whereof  1 operations were pure point group operations)
 out of a pool of  2 trial point group operations.


The dynamic configuration has the point symmetry C_1 .


Analysis of structural, dynamic, and magnetic symmetry:
=====================================================================
 Subroutine PRICEL returns following result:
 
  LATTYP: Found a triclinic cell.
 ALAT       =     8.8524544993
 B/A-ratio  =     1.4072411401
 C/A-ratio  =     1.0225215175
 COS(alpha) =     0.0001355172
 COS(beta)  =     0.5046167836
 COS(gamma) =     0.7037964938
  
  Lattice vectors:
  
 A1 = (   6.2890165300,   6.2297269971,   0.0687261899)
 A2 = (   0.0011956322,  12.4575380825,  -0.0007464135)
 A3 = (   6.3581240661,   0.0010024783,   6.4428097093)
 
   4 primitive cells build up your supercell.
 

 Routine SETGRP: Setting up the symmetry group for a 
 triclinic supercell.


 Subroutine GETGRP returns: Found  1 space group operations
 (whereof  1 operations were pure point group operations)
 out of a pool of  2 trial point group operations.


The (compounded) configuration has the point symmetry C_1 .


 Subroutine INISYM returns: Found  1 space group operations
 (whereof  1 operations are pure point group operations),
 and found     4 'primitive' translations

 
 
 KPOINTS: Automatic 3x3x3                         

Automatic generation of k-mesh.
Space group operators:
 irot       det(A)        alpha          n_x          n_y          n_z        tau_x        tau_y        tau_z
    1     1.000000     0.000000     1.000000     0.000000     0.000000     0.000000     0.000000     0.000000
 
 Subroutine IBZKPT returns following result:
 ===========================================
 
 Found     27 irreducible k-points:
 
 Following reciprocal coordinates:
            Coordinates               Weight
  0.000000  0.000000  0.000000      1.000000
  0.333333 -0.000000 -0.000000      1.000000
 -0.333333  0.000000  0.000000      1.000000
  0.000000  0.333333 -0.000000      1.000000
  0.333333  0.333333  0.000000      1.000000
 -0.333333  0.333333  0.000000      1.000000
 -0.000000 -0.333333  0.000000      1.000000
  0.333333 -0.333333 -0.000000      1.000000
 -0.333333 -0.333333 -0.000000      1.000000
  0.000000  0.000000  0.333333      1.000000
  0.333333  0.000000  0.333333      1.000000
 -0.333333  0.000000  0.333333      1.000000
  0.000000  0.333333  0.333333      1.000000
  0.333333  0.333333  0.333333      1.000000
 -0.333333  0.333333  0.333333      1.000000
  0.000000 -0.333333  0.333333      1.000000
  0.333333 -0.333333  0.333333      1.000000
 -0.333333 -0.333333  0.333333      1.000000
  0.000000  0.000000 -0.333333      1.000000
  0.333333 -0.000000 -0.333333      1.000000
 -0.333333 -0.000000 -0.333333      1.000000
 -0.000000  0.333333 -0.333333      1.000000
  0.333333  0.333333 -0.333333      1.000000
 -0.333333  0.333333 -0.333333      1.000000
 -0.000000 -0.333333 -0.333333      1.000000
  0.333333 -0.333333 -0.333333      1.000000
 -0.333333 -0.333333 -0.333333      1.000000
 
 Following cartesian coordinates:
            Coordinates               Weight
  0.000000  0.000000  0.000000      1.000000
  0.026507 -0.000003 -0.000290      1.000000
 -0.026507  0.000003  0.000290      1.000000
 -0.000004  0.026758 -0.000000      1.000000
  0.026503  0.026755 -0.000290      1.000000
 -0.026511  0.026760  0.000290      1.000000
  0.000004 -0.026758  0.000000      1.000000
  0.026511 -0.026760 -0.000290      1.000000
 -0.026503 -0.026755  0.000290      1.000000
 -0.000287  0.000002  0.026152      1.000000
  0.026220 -0.000001  0.025862      1.000000
 -0.026794  0.000004  0.026442      1.000000
 -0.000291  0.026759  0.026152      1.000000
  0.026215  0.026757  0.025862      1.000000
 -0.026798  0.026762  0.026442      1.000000
 -0.000283 -0.026756  0.026152      1.000000
  0.026224 -0.026759  0.025862      1.000000
 -0.026790 -0.026753  0.026442      1.000000
  0.000287 -0.000002 -0.026152      1.000000
  0.026794 -0.000004 -0.026442      1.000000
 -0.026220  0.000001 -0.025862      1.000000
  0.000283  0.026756 -0.026152      1.000000
  0.026790  0.026753 -0.026442      1.000000
 -0.026224  0.026759 -0.025862      1.000000
  0.000291 -0.026759 -0.026152      1.000000
  0.026798 -0.026762 -0.026442      1.000000
 -0.026215 -0.026757 -0.025862      1.000000
 


--------------------------------------------------------------------------------------------------------




 Dimension of arrays:
   k-points           NKPTS =     27   k-points in BZ     NKDIM =     27   number of bands    NBANDS=    608
   number of dos      NEDOS =    301   number of ions     NIONS =     96
   non local maximal  LDIM  =      6   non local SUM 2l+1 LMDIM =     18
   total plane-waves  NPLWV = ******
   max r-space proj   IRMAX =      1   max aug-charges    IRDMAX= 314103
   dimension x,y,z NGX =   112 NGY =  108 NGZ =  112
   dimension x,y,z NGXF=   224 NGYF=  216 NGZF=  224
   support grid    NGXF=   448 NGYF=  432 NGZF=  448
   ions per type =               8   8  48   8  24
 NGX,Y,Z   is equivalent  to a cutoff of  14.80, 14.41, 14.61 a.u.
 NGXF,Y,Z  is equivalent  to a cutoff of  29.61, 28.83, 29.21 a.u.


 I would recommend the setting:
   dimension x,y,z NGX =   109 NGY =  107 NGZ =  110
 SYSTEM =  MAPbI3-Cubic                            
 POSCAR =  C N H Pb I                              

 Startparameter for this run:
   NWRITE =      2    write-flag & timer
   PREC   = accura    normal or accurate (medium, high low for compatibility)
   ISTART =      0    job   : 0-new  1-cont  2-samecut
   ICHARG =      2    charge: 1-file 2-atom 10-const
   ISPIN  =      1    spin polarized calculation?
   LNONCOLLINEAR =      T non collinear calculations
   LSORBIT =      T    spin-orbit coupling
   INIWAV =      1    electr: 0-lowe 1-rand  2-diag
   LASPH  =      F    aspherical Exc in radial PAW
   METAGGA=      F    non-selfconsistent MetaGGA calc.

 Electronic Relaxation 1
   ENCUT  =  700.0 eV  51.45 Ry    7.17 a.u.  27.13 26.87 27.50*2*pi/ulx,y,z
   ENINI  =  700.0     initial cutoff
   ENAUG  =  644.9 eV  augmentation charge cutoff
   NELM   =     60;   NELMIN=  2; NELMDL= -5     # of ELM steps 
   EDIFF  = 0.1E-09   stopping-criterion for ELM
   LREAL  =      F    real-space projection
   NLSPLINE    = F    spline interpolate recip. space projectors
   LCOMPAT=      F    compatible to vasp.4.4
   GGA_COMPAT  = T    GGA compatible to vasp.4.4-vasp.4.6
   LMAXPAW     = -100 max onsite density
   LMAXMIX     =    2 max onsite mixed and CHGCAR
   VOSKOWN=      0    Vosko Wilk Nusair interpolation
   ROPT   =    0.00000   0.00000   0.00000   0.00000
   ROPT   =    0.00000
 Ionic relaxation
   EDIFFG = 0.1E-08   stopping-criterion for IOM
   NSW    =      0    number of steps for IOM
   NBLOCK =      1;   KBLOCK =      1    inner block; outer block 
   IBRION =     -1    ionic relax: 0-MD 1-quasi-New 2-CG
   NFREE  =      0    steps in history (QN), initial steepest desc. (CG)
   ISIF   =      2    stress and relaxation
   IWAVPR =     10    prediction:  0-non 1-charg 2-wave 3-comb
   ISYM   =      2    0-nonsym 1-usesym 2-fastsym
   LCORR  =      T    Harris-Foulkes like correction to forces

   POTIM  = 0.5000    time-step for ionic-motion
   TEIN   =    0.0    initial temperature
   TEBEG  =    0.0;   TEEND  =   0.0 temperature during run
   SMASS  =  -3.00    Nose mass-parameter (am)
   estimated Nose-frequenzy (Omega)   =  0.10E-29 period in steps =****** mass=  -0.362E-26a.u.
   SCALEE = 1.0000    scale energy and forces
   NPACO  =    256;   APACO  = 16.0  distance and # of slots for P.C.
   PSTRESS=    0.0 pullay stress

  Mass of Ions in am
   POMASS =  12.01 14.00  1.00207.20126.90
  Ionic Valenz
   ZVAL   =   4.00  5.00  1.00 14.00  7.00
  Atomic Wigner-Seitz radii
   RWIGS  =  -1.00 -1.00 -1.00 -1.00 -1.00
  virtual crystal weights 
   VCA    =   1.00  1.00  1.00  1.00  1.00
   NELECT =     400.0000    total number of electrons
   NUPDOWN=      -1.0000    fix difference up-down

 DOS related values:
   EMIN   =  10.00;   EMAX   =-10.00  energy-range for DOS
   EFERMI =   0.00
   ISMEAR =     0;   SIGMA  =   0.00  broadening in eV -4-tet -1-fermi 0-gaus

 Electronic relaxation 2 (details)
   IALGO  =     38    algorithm
   LDIAG  =      T    sub-space diagonalisation (order eigenvalues)
   LSUBROT=      F    optimize rotation matrix (better conditioning)
   TURBO    =      0    0=normal 1=particle mesh
   IRESTART =      0    0=no restart 2=restart with 2 vectors
   NREBOOT  =      0    no. of reboots
   NMIN     =      0    reboot dimension
   EREF     =   0.00    reference energy to select bands
   IMIX   =      4    mixing-type and parameters
     AMIX     =   0.40;   BMIX     =  1.00
     AMIX_MAG =   1.60;   BMIX_MAG =  1.00
     AMIN     =   0.10
     WC   =   100.;   INIMIX=   1;  MIXPRE=   1;  MAXMIX= -45

 Intra band minimization:
   WEIMIN = 0.0000     energy-eigenvalue tresh-hold
   EBREAK =  0.41E-13  absolut break condition
   DEPER  =   0.30     relativ break condition  

   TIME   =   0.40     timestep for ELM

  volume/ion in A,a.u.               =      20.80       140.38
  Fermi-wavevector in a.u.,A,eV,Ry     =   0.957863  1.810099 12.483376  0.917502
  Thomas-Fermi vector in A             =   2.086919
 
 Write flags
   LWAVE  =      F    write WAVECAR
   LCHARG =      F    write CHGCAR
   LVTOT  =      F    write LOCPOT, total local potential
   LVHAR  =      F    write LOCPOT, Hartree potential only
   LELF   =      F    write electronic localiz. function (ELF)
   LORBIT =      0    0 simple, 1 ext, 2 COOP (PROOUT)


 Dipole corrections
   LMONO  =      F    monopole corrections only (constant potential shift)
   LDIPOL =      F    correct potential (dipole corrections)
   IDIPOL =      0    1-x, 2-y, 3-z, 4-all directions 
   EPSILON=  1.0000000 bulk dielectric constant

 Core level calculations are selected ICORELEVEL =  1
 Exchange correlation treatment:
   GGA     =    PS    GGA type
   LEXCH   =    14    internal setting for exchange type
   VOSKOWN=      0    Vosko Wilk Nusair interpolation
   LHFCALC =     F    Hartree Fock is set to
   LHFONE  =     F    Hartree Fock one center treatment
   AEXX    =    0.0000 exact exchange contribution

 Linear response parameters
   LEPSILON=     F    determine dielectric tensor
   LRPA    =     F    only Hartree local field effects (RPA)
   LNABLA  =     F    use nabla operator in PAW spheres
   LVEL    =     F    velocity operator in full k-point grid
   LINTERFAST=   F  fast interpolation
   KINTER  =     0    interpolate to denser k-point grid
   CSHIFT  =0.1000    complex shift for real part using Kramers Kronig
   OMEGAMAX=  -1.0    maximum frequency
   DEG_THRESHOLD= 0.2000000E-02 threshold for treating states as degnerate
   RTIME   =    0.100 relaxation time in fs

 Orbital magnetization related:
   ORBITALMAG=     F  switch on orbital magnetization
   LCHIMAG   =     F  perturbation theory with respect to B field
   DQ        =  0.001000  dq finite difference perturbation B field



--------------------------------------------------------------------------------------------------------


 Static calculation
 charge density and potential will be updated during run
 non collinear spin polarized calculation
 Variant of blocked Davidson
 Davidson routine will perform the subspace rotation
 perform sub-space diagonalisation
    after iterative eigenvector-optimisation
 modified Broyden-mixing scheme, WC =      100.0
 initial mixing is a Kerker type mixing with AMIX =  0.4000 and BMIX =      1.0000
 Hartree-type preconditioning will be used
 using additional bands          408
 reciprocal scheme for non local part
 use partial core corrections
 calculate Harris-corrections to forces 
   (improved forces if not selfconsistent)
 use gradient corrections 
 use of overlap-Matrix (Vanderbilt PP)
 Gauss-broadening in eV      SIGMA  =   0.00


--------------------------------------------------------------------------------------------------------


  energy-cutoff  :      700.00
  volume of cell :     1996.98
      direct lattice vectors                 reciprocal lattice vectors
    12.576837428  0.001915912  0.138198793     0.079520802 -0.000007684 -0.000869670
     0.001195632 12.457538083 -0.000746413    -0.000012224  0.080272684 -0.000000427
     0.139410704  0.000089045 12.747420625    -0.000862111  0.000004784  0.078456671

  length of vectors
    12.577596840 12.457538162 12.748182927     0.079525558  0.080272685  0.078461408


 
 k-points in units of 2pi/SCALE and weight: Automatic 3x3x3                         
   0.00000000  0.00000000  0.00000000       0.037
   0.02650693 -0.00000256 -0.00028989       0.037
  -0.02650693  0.00000256  0.00028989       0.037
  -0.00000407  0.02675756 -0.00000014       0.037
   0.02650286  0.02675500 -0.00029003       0.037
  -0.02651101  0.02676012  0.00028975       0.037
   0.00000407 -0.02675756  0.00000014       0.037
   0.02651101 -0.02676012 -0.00028975       0.037
  -0.02650286 -0.02675500  0.00029003       0.037
  -0.00028737  0.00000159  0.02615222       0.037
   0.02621956 -0.00000097  0.02586233       0.037
  -0.02679430  0.00000416  0.02644211       0.037
  -0.00029144  0.02675916  0.02615208       0.037
   0.02621549  0.02675659  0.02586219       0.037
  -0.02679838  0.02676172  0.02644197       0.037
  -0.00028330 -0.02675597  0.02615237       0.037
   0.02622364 -0.02675853  0.02586248       0.037
  -0.02679023 -0.02675341  0.02644226       0.037
   0.00028737 -0.00000159 -0.02615222       0.037
   0.02679430 -0.00000416 -0.02644211       0.037
  -0.02621956  0.00000097 -0.02586233       0.037
   0.00028330  0.02675597 -0.02615237       0.037
   0.02679023  0.02675341 -0.02644226       0.037
  -0.02622364  0.02675853 -0.02586248       0.037
   0.00029144 -0.02675916 -0.02615208       0.037
   0.02679838 -0.02676172 -0.02644197       0.037
  -0.02621549 -0.02675659 -0.02586219       0.037
 
 k-points in reciprocal lattice and weights: Automatic 3x3x3                         
   0.00000000  0.00000000  0.00000000       0.037
   0.33333333 -0.00000000 -0.00000000       0.037
  -0.33333333  0.00000000  0.00000000       0.037
   0.00000000  0.33333333 -0.00000000       0.037
   0.33333333  0.33333333  0.00000000       0.037
  -0.33333333  0.33333333  0.00000000       0.037
  -0.00000000 -0.33333333  0.00000000       0.037
   0.33333333 -0.33333333 -0.00000000       0.037
  -0.33333333 -0.33333333 -0.00000000       0.037
   0.00000000  0.00000000  0.33333333       0.037
   0.33333333  0.00000000  0.33333333       0.037
  -0.33333333  0.00000000  0.33333333       0.037
   0.00000000  0.33333333  0.33333333       0.037
   0.33333333  0.33333333  0.33333333       0.037
  -0.33333333  0.33333333  0.33333333       0.037
   0.00000000 -0.33333333  0.33333333       0.037
   0.33333333 -0.33333333  0.33333333       0.037
  -0.33333333 -0.33333333  0.33333333       0.037
   0.00000000  0.00000000 -0.33333333       0.037
   0.33333333 -0.00000000 -0.33333333       0.037
  -0.33333333 -0.00000000 -0.33333333       0.037
  -0.00000000  0.33333333 -0.33333333       0.037
   0.33333333  0.33333333 -0.33333333       0.037
  -0.33333333  0.33333333 -0.33333333       0.037
  -0.00000000 -0.33333333 -0.33333333       0.037
   0.33333333 -0.33333333 -0.33333333       0.037
  -0.33333333 -0.33333333 -0.33333333       0.037
 
 position of ions in fractional coordinates (direct lattice) 
   0.19759350  0.24986107  0.22864445
   0.69639477  0.24995548  0.22918626
   0.19639477  0.74995548  0.22918626
   0.69759350  0.74986107  0.22864445
   0.19639477  0.24995548  0.72918626
   0.69759350  0.24986107  0.72864445
   0.19759350  0.74986107  0.72864445
   0.69639477  0.74995548  0.72918626
   0.31007904  0.24997331  0.26249985
   0.79899539  0.25003397  0.28526874
   0.29899539  0.75003397  0.28526874
   0.81007904  0.74997331  0.26249985
   0.29899539  0.25003397  0.78526874
   0.81007904  0.24997331  0.76249985
   0.31007904  0.74997331  0.76249985
   0.79899539  0.75003397  0.78526874
   0.19647803  0.24977413  0.14196399
   0.71367231  0.24986807  0.14381326
   0.21367231  0.74986807  0.14381326
   0.69647803  0.74977413  0.14196399
   0.21367231  0.24986807  0.64381326
   0.69647803  0.24977413  0.64196399
   0.19647803  0.74977413  0.64196399
   0.71367231  0.74986807  0.64381326
   0.15747326  0.32223705  0.25942665
   0.65120235  0.32246732  0.25160398
   0.15120235  0.82246732  0.25160398
   0.65747326  0.82223705  0.25942665
   0.15120235  0.32246732  0.75160398
   0.65747326  0.32223705  0.75942665
   0.15747326  0.82223705  0.75942665
   0.65120235  0.82246732  0.75160398
   0.15761809  0.17748087  0.25955257
   0.65126758  0.17747128  0.25174884
   0.15126758  0.67747128  0.25174884
   0.65761809  0.67748087  0.25955257
   0.15126758  0.17747128  0.75174884
   0.65761809  0.17748087  0.75955257
   0.15761809  0.67748087  0.75955257
   0.65126758  0.67747128  0.75174884
   0.35148264  0.31778484  0.23521529
   0.84478652  0.31796372  0.26629769
   0.34478652  0.81796372  0.26629769
   0.85148264  0.81778484  0.23521529
   0.34478652  0.31796372  0.76629769
   0.85148264  0.31778484  0.73521529
   0.35148264  0.81778484  0.73521529
   0.84478652  0.81796372  0.76629769
   0.35160078  0.18216692  0.23530808
   0.84480982  0.18204285  0.26647372
   0.34480982  0.68204285  0.26647372
   0.85160078  0.68216692  0.23530808
   0.34480982  0.18204285  0.76647372
   0.85160078  0.18216692  0.73530808
   0.35160078  0.68216692  0.73530808
   0.84480982  0.68204285  0.76647372
   0.31816611  0.25003109  0.34457118
   0.78817404  0.25015595  0.36664731
   0.28817404  0.75015595  0.36664731
   0.81816611  0.75003109  0.34457118
   0.28817404  0.25015595  0.86664731
   0.81816611  0.25003109  0.84457118
   0.31816611  0.75003109  0.84457118
   0.78817404  0.75015595  0.86664731
   0.47243890  0.49850886  0.48880751
   0.97244465  0.50147073  0.48881539
   0.47244465  0.00147073  0.48881539
   0.97243890  0.99850886  0.48880751
   0.47244465  0.50147073  0.98881539
   0.97243890  0.49850886  0.98880751
   0.47243890  0.99850886  0.98880751
   0.97244465  0.00147073  0.98881539
   0.45470910  0.50305667  0.23757449
   0.95477825  0.49692543  0.23757099
   0.45477825  0.99692543  0.23757099
   0.95470910  0.00305667  0.23757449
   0.45477825  0.49692543  0.73757099
   0.95470910  0.50305667  0.73757449
   0.45470910  0.00305667  0.73757449
   0.95477825  0.99692543  0.73757099
   0.47236570  0.24997355  0.01081672
   0.92690518  0.24998447  0.01284771
   0.42690518  0.74998447  0.01284771
   0.97236570  0.74997355  0.01081672
   0.42690518  0.24998447  0.51284771
   0.97236570  0.24997355  0.51081672
   0.47236570  0.74997355  0.51081672
   0.92690518  0.74998447  0.51284771
   0.21616581  0.52607145  0.46126692
   0.71617707  0.47392342  0.46121248
   0.21617707  0.97392342  0.46121248
   0.71616581  0.02607145  0.46126692
   0.21617707  0.47392342  0.96121248
   0.71616581  0.52607145  0.96126692
   0.21616581  0.02607145  0.96126692
   0.71617707  0.97392342  0.96121248
 
 position of ions in cartesian coordinates  (Angst):
   2.51727552  3.11305269  2.94174763
   8.79069364  3.11518459  3.01758802
   2.50287275  9.34299568  2.94811541
   8.80629205  9.34277968  3.01047382
   2.57198028  3.11427116  9.32219893
   8.87539959  3.11405516  9.38455734
   2.58757869  9.34186625  9.31508474
   8.86099681  9.34399816  9.39092512
   3.93670788  3.11466954  3.38886196
  10.08890365  3.11636387  3.74667424
   3.80108275  9.34417495  3.67720163
  10.22572441  9.34439654  3.45758815
   3.87019029  3.11545044 10.05128515
  10.29483195  3.11567202  9.83167167
   4.00701105  9.34348311  9.76219906
  10.15920682  9.34517743 10.12001134
   2.49116214  3.11195975  1.83664126
   8.99608845  3.11412110  1.93169031
   2.70826755  9.34193219  1.86221771
   8.78017867  9.34168675  1.90536745
   2.77737508  3.11320767  8.23630123
   8.84928621  3.11296223  8.27945097
   2.56146531  9.34077332  8.20997837
   9.06639161  9.34293467  8.30502742
   2.01706776  4.01460517  3.32854278
   8.22552793  4.01841897  3.29705650
   1.93770704 10.24623006  3.22758389
   8.30608429 10.24433217  3.39726897
   2.00681457  4.01750554  9.60166741
   8.37519182  4.01560765  9.77135249
   2.08737093 10.24341873  9.70187989
   8.29583110 10.24723253  9.67039360
   2.01873365  2.21129977  3.33027599
   8.22619517  2.21212541  3.29902027
   1.93837427  8.43993649  3.22954767
   8.30775018  8.44102676  3.39900218
   2.00748181  2.21121197  9.60363119
   8.37685772  2.21230224  9.77308570
   2.08903682  8.44011333  9.70361310
   8.29649834  8.44093897  9.67235738
   4.45371146  3.95951116  3.04672550
  10.66224762  3.96268741  3.51111986
   4.37442672 10.19049850  3.44164725
  10.74272799 10.18923816  3.11545169
   4.44353425  3.96177398  9.81573077
  10.81183553  3.96051364  9.48953521
   4.52401463 10.18832472  9.42006260
  10.73255078 10.19150098  9.88445696
   4.45504807  2.27004597  3.04802586
  10.66240277  2.26944807  3.51346845
   4.37458187  8.49725916  3.44399585
  10.74406460  8.49977297  3.11675205
   4.44368940  2.26853464  9.81807937
  10.81317213  2.27104845  9.49083557
   4.52535124  8.49885953  9.42136297
  10.73270593  8.49826163  9.88680556
   4.04985926  3.11541207  4.43617726
   9.96415041  3.11787005  4.78254551
   3.67632951  9.34568114  4.71307290
  10.33887579  9.34513907  4.50490345
   3.74543704  3.11695662 11.08715642
  10.40798333  3.11641455 10.87898697
   4.12016243  9.34422563 10.80951437
  10.03445357  9.34668362 11.15588261
   6.01052827  6.21114178  6.29595330
  12.29902397  6.24899736  6.36515170
   6.01000744  0.01927036  6.29642551
  12.29954480 12.44086878  6.36467949
   6.08031060  6.24808393 12.66976262
  12.36865234  6.21214426 12.73876301
   6.08083144 12.43995534 12.66929041
  12.36813150  0.02027284 12.73923522
   5.75252430  6.26773995  3.09092676
  12.04180492  6.19231789  3.15999563
   5.75398402 12.42012898  3.09052302
  12.04034520  0.03992886  3.16039937
   5.82309155  6.19140446  9.46460654
  12.11064837  6.26874243  9.53373647
   5.82163184  0.03901543  9.46501028
  12.11210808 12.42113146  9.53333273
   5.94267344  3.11496100  0.20297909
  11.65962577  3.11596807  0.29168579
   5.37180487  9.34377916  0.22221319
  12.23168997  9.34468800  0.27170528
   5.44091241  3.11505464  6.59629671
  12.30079750  3.11596348  6.64578880
   6.01297661  9.34377456  6.57631620
  11.72992894  9.34478164  6.66502290
   2.78361673  6.55401039  5.90944469
   9.07210719  5.90533225  5.97789054
   2.78428629 12.13314333  5.90841794
   9.07143762  0.32619930  5.97891729
   2.85339383  5.90441881 12.28250146
   9.14174079  6.55501287 12.35225440
   2.85272426  0.32528587 12.28352821
   9.14241036 12.13414581 12.35122765
 
 Euler angles ALPHA=     0.0000000  BETA=     0.0000000

 transformation matrix from SAXIS to cartesian coordinates
 ---------------------------------------------------------
     1.0000000 m_x     0.0000000 m_y     0.0000000 m_z
     0.0000000 m_x     1.0000000 m_y     0.0000000 m_z
     0.0000000 m_x     0.0000000 m_y     1.0000000 m_z

 transformation matrix from cartesian coordinates to SAXIS
 ---------------------------------------------------------
     1.0000000 m_x     0.0000000 m_y     0.0000000 m_z
     0.0000000 m_x     1.0000000 m_y     0.0000000 m_z
     0.0000000 m_x     0.0000000 m_y     1.0000000 m_z




--------------------------------------------------------------------------------------------------------


 k-point  1 :   0.0000 0.0000 0.0000  plane waves:  168014
 k-point  2 :   0.3333-0.0000-0.0000  plane waves:  168006
 k-point  3 :  -0.3333 0.0000 0.0000  plane waves:  168006
 k-point  4 :   0.0000 0.3333-0.0000  plane waves:  167990
 k-point  5 :   0.3333 0.3333 0.0000  plane waves:  168036
 k-point  6 :  -0.3333 0.3333 0.0000  plane waves:  168038
 k-point  7 :  -0.0000-0.3333 0.0000  plane waves:  167990
 k-point  8 :   0.3333-0.3333-0.0000  plane waves:  168038
 k-point  9 :  -0.3333-0.3333-0.0000  plane waves:  168036
 k-point 10 :   0.0000 0.0000 0.3333  plane waves:  167920
 k-point 11 :   0.3333 0.0000 0.3333  plane waves:  167874
 k-point 12 :  -0.3333 0.0000 0.3333  plane waves:  167964
 k-point 13 :   0.0000 0.3333 0.3333  plane waves:  167968
 k-point 14 :   0.3333 0.3333 0.3333  plane waves:  168024
 k-point 15 :  -0.3333 0.3333 0.3333  plane waves:  167940
 k-point 16 :   0.0000-0.3333 0.3333  plane waves:  167954
 k-point 17 :   0.3333-0.3333 0.3333  plane waves:  168026
 k-point 18 :  -0.3333-0.3333 0.3333  plane waves:  167946
 k-point 19 :   0.0000 0.0000-0.3333  plane waves:  167920
 k-point 20 :   0.3333-0.0000-0.3333  plane waves:  167964
 k-point 21 :  -0.3333-0.0000-0.3333  plane waves:  167874
 k-point 22 :  -0.0000 0.3333-0.3333  plane waves:  167954
 k-point 23 :   0.3333 0.3333-0.3333  plane waves:  167946
 k-point 24 :  -0.3333 0.3333-0.3333  plane waves:  168026
 k-point 25 :  -0.0000-0.3333-0.3333  plane waves:  167968
 k-point 26 :   0.3333-0.3333-0.3333  plane waves:  167940
 k-point 27 :  -0.3333-0.3333-0.3333  plane waves:  168024

 maximum and minimum number of plane-waves per node :     14178    13802

 maximum number of plane-waves:    168038
 maximum index in each direction: 
   IXMAX=   27   IYMAX=   27   IZMAX=   27
   IXMIN=  -27   IYMIN=  -27   IZMIN=  -27

 NGX is ok and might be reduce to 110
 WARNING: aliasing errors must be expected set NGY to 110 to avoid them
 NGZ is ok and might be reduce to 110
 aliasing errors are usually negligible using standard VASP settings
 and one can safely disregard these warnings

 parallel 3D FFT for wavefunctions:
    minimum data exchange during FFTs selected (reduces bandwidth)
 parallel 3D FFT for charge:
    minimum data exchange during FFTs selected (reduces bandwidth)


 total amount of memory used by VASP on root node   480019. kBytes
========================================================================

   base      :      30000. kBytes
   nonl-proj :     147671. kBytes
   fftplans  :      24736. kBytes
   grid      :      43352. kBytes
   one-center:        497. kBytes
   wavefun   :     233763. kBytes
 
     INWAV:  cpu time    0.0000: real time    0.0000
 Broyden mixing: mesh for mixing (old mesh)
   NGX = 55   NGY = 53   NGZ = 55
  (NGX  =224   NGY  =216   NGZ  =224)
  gives a total of 160325 points

 initial charge density was supplied:
 charge density of overlapping atoms calculated
 number of electron     400.0000000 magnetization      96.0000000     96.0000000     96.0000000
 keeping initial charge density in first step


--------------------------------------------------------------------------------------------------------


 Maximum index for augmentation-charges         5399 (set IRDMAX)


--------------------------------------------------------------------------------------------------------


 First call to EWALD:  gamma=   0.141
 Maximum number of real-space cells 3x 3x 3
 Maximum number of reciprocal cells 3x 3x 3

 FEWALD executed in parallel
    FEWALD:  cpu time    0.3720: real time    0.3742


----------------------------------------- Iteration    1(   1)  ---------------------------------------


    POTLOK:  cpu time    0.6160: real time    0.6157
    SETDIJ:  cpu time    2.2121: real time    2.2118
     EDDAV:  cpu time   17.1771: real time   17.1896
       DOS:  cpu time    0.0120: real time    0.0122
    --------------------------------------------
      LOOP:  cpu time   20.0173: real time   20.2251

 eigenvalue-minimisations  : 32912
 total energy-change (2. order) : 0.4219176E+04  (-0.1927693E+05)
 number of electron     400.0000000 magnetization      96.0000000     96.0000000     96.0000000
 augmentation part      400.0000000 magnetization      96.0000000     96.0000000     96.0000000

 Free energy of the ion-electron system (eV)
  ---------------------------------------------------
  alpha Z        PSCENC =       370.05370877
  Ewald energy   TEWEN  =    -15541.70579541
  -Hartree energ DENC   =     -8111.62558048
  -exchange      EXHF   =         0.00000000
  -V(xc)+E(xc)   XCENC  =       672.93670405
  PAW double counting   =     20172.90621935   -19413.33347658
  entropy T*S    EENTRO =        -0.00000820
  eigenvalues    EBANDS =      1320.93736366
  atomic energy  EATOM  =     24749.00668030
  Solvation  Ediel_sol  =         0.00000000
  ---------------------------------------------------
  free energy    TOTEN  =      4219.17581546 eV

  energy without entropy =     4219.17582366  energy(sigma->0) =     4219.17581956


--------------------------------------------------------------------------------------------------------




----------------------------------------- Iteration    1(   2)  ---------------------------------------


     EDDAV:  cpu time   18.2891: real time   18.2997
       DOS:  cpu time    0.0120: real time    0.0106
    --------------------------------------------
      LOOP:  cpu time   18.3011: real time   18.3675

 eigenvalue-minimisations  : 36112
 total energy-change (2. order) :-0.3389135E+04  (-0.3134172E+04)
 number of electron     400.0000000 magnetization      96.0000000     96.0000000     96.0000000
 augmentation part      400.0000000 magnetization      96.0000000     96.0000000     96.0000000

 Free energy of the ion-electron system (eV)
  ---------------------------------------------------
  alpha Z        PSCENC =       370.05370877
  Ewald energy   TEWEN  =    -15541.70579541
  -Hartree energ DENC   =     -8111.62558048
  -exchange      EXHF   =         0.00000000
  -V(xc)+E(xc)   XCENC  =       672.93670405
  PAW double counting   =     20172.90621935   -19413.33347658
  entropy T*S    EENTRO =        -0.00000366
  eigenvalues    EBANDS =     -2068.19788378
  atomic energy  EATOM  =     24749.00668030
  Solvation  Ediel_sol  =         0.00000000
  ---------------------------------------------------
  free energy    TOTEN  =       830.04057256 eV

  energy without entropy =      830.04057622  energy(sigma->0) =      830.04057439


--------------------------------------------------------------------------------------------------------




----------------------------------------- Iteration    1(   3)  ---------------------------------------


     EDDAV:  cpu time   21.7374: real time   21.7505
       DOS:  cpu time    0.0160: real time    0.0165
    --------------------------------------------
      LOOP:  cpu time   21.7534: real time   21.8278

 eigenvalue-minimisations  : 45264
 total energy-change (2. order) :-0.5995288E+03  (-0.5806673E+03)
 number of electron     400.0000000 magnetization      96.0000000     96.0000000     96.0000000
 augmentation part      400.0000000 magnetization      96.0000000     96.0000000     96.0000000

 Free energy of the ion-electron system (eV)
  ---------------------------------------------------
  alpha Z        PSCENC =       370.05370877
  Ewald energy   TEWEN  =    -15541.70579541
  -Hartree energ DENC   =     -8111.62558048
  -exchange      EXHF   =         0.00000000
  -V(xc)+E(xc)   XCENC  =       672.93670405
  PAW double counting   =     20172.90621935   -19413.33347658
  entropy T*S    EENTRO =        -0.00001643
  eigenvalues    EBANDS =     -2667.72666736
  atomic energy  EATOM  =     24749.00668030
  Solvation  Ediel_sol  =         0.00000000
  ---------------------------------------------------
  free energy    TOTEN  =       230.51177621 eV

  energy without entropy =      230.51179264  energy(sigma->0) =      230.51178442


--------------------------------------------------------------------------------------------------------




----------------------------------------- Iteration    1(   4)  ---------------------------------------


     EDDAV:  cpu time   21.8614: real time   21.8768
       DOS:  cpu time    0.0160: real time    0.0173
    --------------------------------------------
      LOOP:  cpu time   21.8814: real time   22.0152

 eigenvalue-minimisations  : 45584
 total energy-change (2. order) :-0.4271903E+02  (-0.4177496E+02)
 number of electron     400.0000000 magnetization      96.0000000     96.0000000     96.0000000
 augmentation part      400.0000000 magnetization      96.0000000     96.0000000     96.0000000

 Free energy of the ion-electron system (eV)
  ---------------------------------------------------
  alpha Z        PSCENC =       370.05370877
  Ewald energy   TEWEN  =    -15541.70579541
  -Hartree energ DENC   =     -8111.62558048
  -exchange      EXHF   =         0.00000000
  -V(xc)+E(xc)   XCENC  =       672.93670405
  PAW double counting   =     20172.90621935   -19413.33347658
  entropy T*S    EENTRO =        -0.00001366
  eigenvalues    EBANDS =     -2710.44569612
  atomic energy  EATOM  =     24749.00668030
  Solvation  Ediel_sol  =         0.00000000
  ---------------------------------------------------
  free energy    TOTEN  =       187.79275022 eV

  energy without entropy =      187.79276388  energy(sigma->0) =      187.79275705


--------------------------------------------------------------------------------------------------------




----------------------------------------- Iteration    1(   5)  ---------------------------------------


     EDDAV:  cpu time   23.9415: real time   23.9583
       DOS:  cpu time    0.0120: real time    0.0124
    CHARGE:  cpu time    3.6122: real time    3.6147
    MIXING:  cpu time    0.0160: real time    0.0164
    --------------------------------------------
      LOOP:  cpu time   27.5897: real time   27.6536

 eigenvalue-minimisations  : 51328
 total energy-change (2. order) :-0.1848718E+01  (-0.1844177E+01)
 number of electron     400.0000000 magnetization      67.1916086     67.1971934     67.1932422
 augmentation part        6.9291355 magnetization      63.2631062     63.2481659     63.2592331

 Broyden mixing:
  rms(total) = 0.97858E+01    rms(broyden)= 0.97856E+01
  rms(prec ) = 0.10283E+02
  weight for this iteration     100.00

 Free energy of the ion-electron system (eV)
  ---------------------------------------------------
  alpha Z        PSCENC =       370.05370877
  Ewald energy   TEWEN  =    -15541.70579541
  -Hartree energ DENC   =     -8111.62558048
  -exchange      EXHF   =         0.00000000
  -V(xc)+E(xc)   XCENC  =       672.93670405
  PAW double counting   =     20172.90621935   -19413.33347658
  entropy T*S    EENTRO =        -0.00001950
  eigenvalues    EBANDS =     -2712.29440812
  atomic energy  EATOM  =     24749.00668030
  Solvation  Ediel_sol  =         0.00000000
  ---------------------------------------------------
  free energy    TOTEN  =       185.94403238 eV

  energy without entropy =      185.94405188  energy(sigma->0) =      185.94404213


--------------------------------------------------------------------------------------------------------




----------------------------------------- Iteration    1(   6)  ---------------------------------------


    POTLOK:  cpu time    0.6400: real time    0.6398
    SETDIJ:  cpu time    2.1921: real time    2.1935
     EDDAV:  cpu time   18.9532: real time   18.9622
       DOS:  cpu time    0.0120: real time    0.0149
    CHARGE:  cpu time    3.5882: real time    3.5896
    MIXING:  cpu time    0.0200: real time    0.0180
    --------------------------------------------
      LOOP:  cpu time   25.4056: real time   25.4915

 eigenvalue-minimisations  : 37376
 total energy-change (2. order) :-0.1305879E+03  (-0.1532092E+03)
 number of electron     400.0000000 magnetization      50.3785912     50.3809306     50.3802235
 augmentation part        5.9500605 magnetization      51.1868160     51.1974385     51.1851262

 Broyden mixing:
  rms(total) = 0.48834E+01    rms(broyden)= 0.48833E+01
  rms(prec ) = 0.50690E+01
  weight for this iteration     100.00

 eigenvalues of (default mixing * dielectric matrix)
  average eigenvalue GAMMA=   0.7568
  0.7568

 Free energy of the ion-electron system (eV)
  ---------------------------------------------------
  alpha Z        PSCENC =       370.05370877
  Ewald energy   TEWEN  =    -15541.70579541
  -Hartree energ DENC   =     -8466.64566488
  -exchange      EXHF   =         0.00000000
  -V(xc)+E(xc)   XCENC  =       689.42105463
  PAW double counting   =     24181.27755963   -23444.56107731
  entropy T*S    EENTRO =        -0.00000020
  eigenvalues    EBANDS =     -2481.49033783
  atomic energy  EATOM  =     24749.00668030
  Solvation  Ediel_sol  =         0.00000000
  ---------------------------------------------------
  free energy    TOTEN  =        55.35612771 eV

  energy without entropy =       55.35612791  energy(sigma->0) =       55.35612781


--------------------------------------------------------------------------------------------------------




----------------------------------------- Iteration    1(   7)  ---------------------------------------


    POTLOK:  cpu time    0.6280: real time    0.6286
    SETDIJ:  cpu time    2.2521: real time    2.2523
     EDDAV:  cpu time   19.6612: real time   19.6750
       DOS:  cpu time    0.0160: real time    0.0152
    CHARGE:  cpu time    3.5642: real time    3.5658
    MIXING:  cpu time    0.0160: real time    0.0157
    --------------------------------------------
      LOOP:  cpu time   26.1376: real time   26.1674

 eigenvalue-minimisations  : 39440
 total energy-change (2. order) :-0.1490082E+03  (-0.1592990E+02)
 number of electron     400.0000000 magnetization      34.3242614     34.3228799     34.3278394
 augmentation part        5.6227045 magnetization      35.3858246     35.3961279     35.3786488

 Broyden mixing:
  rms(total) = 0.28390E+01    rms(broyden)= 0.28390E+01
  rms(prec ) = 0.29948E+01
  weight for this iteration     100.00

 eigenvalues of (default mixing * dielectric matrix)
  average eigenvalue GAMMA=   0.8424
  0.8424  0.8424

 Free energy of the ion-electron system (eV)
  ---------------------------------------------------
  alpha Z        PSCENC =       370.05370877
  Ewald energy   TEWEN  =    -15541.70579541
  -Hartree energ DENC   =     -8514.64976553
  -exchange      EXHF   =         0.00000000
  -V(xc)+E(xc)   XCENC  =       592.07377544
  PAW double counting   =     26612.27653395   -25875.46947215
  entropy T*S    EENTRO =        -0.00001184
  eigenvalues    EBANDS =     -2485.23768654
  atomic energy  EATOM  =     24749.00668030
  Solvation  Ediel_sol  =         0.00000000
  ---------------------------------------------------
  free energy    TOTEN  =       -93.65203300 eV

  energy without entropy =      -93.65202116  energy(sigma->0) =      -93.65202708


--------------------------------------------------------------------------------------------------------




----------------------------------------- Iteration    1(   8)  ---------------------------------------


    POTLOK:  cpu time    0.6280: real time    0.6299
    SETDIJ:  cpu time    2.2641: real time    2.2644
     EDDAV:  cpu time   18.8812: real time   18.8943
       DOS:  cpu time    0.0120: real time    0.0118
    CHARGE:  cpu time    3.6562: real time    3.6571
    MIXING:  cpu time    0.0160: real time    0.0190
    --------------------------------------------
      LOOP:  cpu time   25.4616: real time   25.5049

 eigenvalue-minimisations  : 37936
 total energy-change (2. order) :-0.1085790E+03  (-0.6506767E+01)
 number of electron     400.0000000 magnetization      15.8563073     15.8482728     15.8571476
 augmentation part        6.6790236 magnetization      17.0455823     17.0530384     17.0510305

 Broyden mixing:
  rms(total) = 0.18336E+01    rms(broyden)= 0.18336E+01
  rms(prec ) = 0.18888E+01
  weight for this iteration     100.00

 eigenvalues of (default mixing * dielectric matrix)
  average eigenvalue GAMMA=   1.0078
  1.4132  0.9770  0.6332

 Free energy of the ion-electron system (eV)
  ---------------------------------------------------
  alpha Z        PSCENC =       370.05370877
  Ewald energy   TEWEN  =    -15541.70579541
  -Hartree energ DENC   =     -8549.01823560
  -exchange      EXHF   =         0.00000000
  -V(xc)+E(xc)   XCENC  =       528.99901853
  PAW double counting   =     28603.20514660   -27868.27939838
  entropy T*S    EENTRO =        -0.00000000
  eigenvalues    EBANDS =     -2494.49213731
  atomic energy  EATOM  =     24749.00668030
  Solvation  Ediel_sol  =         0.00000000
  ---------------------------------------------------
  free energy    TOTEN  =      -202.23101251 eV

  energy without entropy =     -202.23101251  energy(sigma->0) =     -202.23101251


--------------------------------------------------------------------------------------------------------




----------------------------------------- Iteration    1(   9)  ---------------------------------------


    POTLOK:  cpu time    0.6400: real time    0.6389
    SETDIJ:  cpu time    2.3081: real time    2.3103
     EDDAV:  cpu time   18.3892: real time   18.4007
       DOS:  cpu time    0.0120: real time    0.0118
    CHARGE:  cpu time    3.5962: real time    3.5979
    MIXING:  cpu time    0.0160: real time    0.0167
    --------------------------------------------
      LOOP:  cpu time   24.9656: real time   25.1611

 eigenvalue-minimisations  : 36352
 total energy-change (2. order) :-0.1321042E+03  (-0.1234323E+02)
 number of electron     400.0000000 magnetization      10.3776715     10.3674316     10.3751227
 augmentation part        7.9342638 magnetization      11.1950008     11.2036783     11.2067744

 Broyden mixing:
  rms(total) = 0.91496E+00    rms(broyden)= 0.91495E+00
  rms(prec ) = 0.96911E+00
  weight for this iteration     100.00

 eigenvalues of (default mixing * dielectric matrix)
  average eigenvalue GAMMA=   1.0804
  1.8114  1.1142  0.6980  0.6980

 Free energy of the ion-electron system (eV)
  ---------------------------------------------------
  alpha Z        PSCENC =       370.05370877
  Ewald energy   TEWEN  =    -15541.70579541
  -Hartree energ DENC   =     -8580.80743598
  -exchange      EXHF   =         0.00000000
  -V(xc)+E(xc)   XCENC  =       463.55408717
  PAW double counting   =     30642.20440237   -29908.22046595
  entropy T*S    EENTRO =         0.00000000
  eigenvalues    EBANDS =     -2528.42036630
  atomic energy  EATOM  =     24749.00668030
  Solvation  Ediel_sol  =         0.00000000
  ---------------------------------------------------
  free energy    TOTEN  =      -334.33518503 eV

  energy without entropy =     -334.33518503  energy(sigma->0) =     -334.33518503


--------------------------------------------------------------------------------------------------------




----------------------------------------- Iteration    1(  10)  ---------------------------------------


    POTLOK:  cpu time    0.6240: real time    0.6250
    SETDIJ:  cpu time    2.2241: real time    2.2253
     EDDAV:  cpu time   18.6932: real time   18.7053
       DOS:  cpu time    0.0120: real time    0.0094
    CHARGE:  cpu time    3.5722: real time    3.5748
    MIXING:  cpu time    0.0160: real time    0.0173
    --------------------------------------------
      LOOP:  cpu time   25.1456: real time   25.1709

 eigenvalue-minimisations  : 37088
 total energy-change (2. order) :-0.4710374E+02  (-0.4650800E+01)
 number of electron     400.0000000 magnetization       6.0850017      6.0769290      6.0813953
 augmentation part        8.2140593 magnetization       6.6153168      6.6137862      6.6174210

 Broyden mixing:
  rms(total) = 0.66147E+00    rms(broyden)= 0.66146E+00
  rms(prec ) = 0.73368E+00
  weight for this iteration     100.00

 eigenvalues of (default mixing * dielectric matrix)
  average eigenvalue GAMMA=   1.1399
  1.7073  1.7073  0.8344  0.8344  0.6158

 Free energy of the ion-electron system (eV)
  ---------------------------------------------------
  alpha Z        PSCENC =       370.05370877
  Ewald energy   TEWEN  =    -15541.70579541
  -Hartree energ DENC   =     -8566.58737298
  -exchange      EXHF   =         0.00000000
  -V(xc)+E(xc)   XCENC  =       442.70513572
  PAW double counting   =     30976.39203500   -30240.83203567
  entropy T*S    EENTRO =         0.00000000
  eigenvalues    EBANDS =     -2570.47127843
  atomic energy  EATOM  =     24749.00668030
  Solvation  Ediel_sol  =         0.00000000
  ---------------------------------------------------
  free energy    TOTEN  =      -381.43892269 eV

  energy without entropy =     -381.43892269  energy(sigma->0) =     -381.43892269


--------------------------------------------------------------------------------------------------------




----------------------------------------- Iteration    1(  11)  ---------------------------------------


    POTLOK:  cpu time    0.6480: real time    0.6500
    SETDIJ:  cpu time    2.2121: real time    2.2127
     EDDAV:  cpu time   19.5572: real time   19.5686
       DOS:  cpu time    0.0160: real time    0.0151
    CHARGE:  cpu time    3.5802: real time    3.5853
    MIXING:  cpu time    0.0200: real time    0.0167
    --------------------------------------------
      LOOP:  cpu time   26.0376: real time   26.0816

 eigenvalue-minimisations  : 38960
 total energy-change (2. order) :-0.2923183E+02  (-0.4034740E+01)
 number of electron     400.0000000 magnetization       3.1423564      3.1371259      3.1396592
 augmentation part        8.0912065 magnetization       3.3588079      3.3550685      3.3567475

 Broyden mixing:
  rms(total) = 0.37850E+00    rms(broyden)= 0.37849E+00
  rms(prec ) = 0.43240E+00
  weight for this iteration     100.00

 eigenvalues of (default mixing * dielectric matrix)
  average eigenvalue GAMMA=   1.2114
  2.0746  2.0746  0.9413  0.9413  0.6610  0.5756

 Free energy of the ion-electron system (eV)
  ---------------------------------------------------
  alpha Z        PSCENC =       370.05370877
  Ewald energy   TEWEN  =    -15541.70579541
  -Hartree energ DENC   =     -8513.87656601
  -exchange      EXHF   =         0.00000000
  -V(xc)+E(xc)   XCENC  =       428.11628985
  PAW double counting   =     30955.46859336   -30216.53874953
  entropy T*S    EENTRO =         0.00000000
  eigenvalues    EBANDS =     -2641.19491375
  atomic energy  EATOM  =     24749.00668030
  Solvation  Ediel_sol  =         0.00000000
  ---------------------------------------------------
  free energy    TOTEN  =      -410.67075242 eV

  energy without entropy =     -410.67075242  energy(sigma->0) =     -410.67075242


--------------------------------------------------------------------------------------------------------




----------------------------------------- Iteration    1(  12)  ---------------------------------------


    POTLOK:  cpu time    0.6360: real time    0.6359
    SETDIJ:  cpu time    2.2481: real time    2.2499
     EDDAV:  cpu time   20.8093: real time   20.8221
[...]
     0.0000000     0.0000000     0.0000000     0.0000000     0.0000000     0.0000000     0.0000000
     0.0000000     0.0000000     0.0000000     0.0000000     0.0000000     0.0000000     0.0000000
     0.0000000     0.0000000     0.0000000     0.0000000     0.0000000     0.0000000     0.0000000
     0.0000000     0.0000000     0.0000000     0.0000000     0.0000000     0.0000000     0.0000000

 Ion:   82  E_soc:     -0.2790079
 l=   1
     0.0000000    -0.0479216    -0.0484604
    -0.0479216     0.0000000    -0.0431403
    -0.0484604    -0.0431403     0.0000000
 l=   2
     0.0000000    -0.0000089     0.0000000    -0.0000028     0.0000217
    -0.0000089     0.0000000     0.0000047    -0.0000025     0.0000111
     0.0000000     0.0000047     0.0000000    -0.0000034     0.0000000
    -0.0000028    -0.0000025    -0.0000034     0.0000000    -0.0000018
     0.0000217     0.0000111     0.0000000    -0.0000018     0.0000000
 l=   3
     0.0000000     0.0000000     0.0000000     0.0000000     0.0000000     0.0000000     0.0000000
     0.0000000     0.0000000     0.0000000     0.0000000     0.0000000     0.0000000     0.0000000
     0.0000000     0.0000000     0.0000000     0.0000000     0.0000000     0.0000000     0.0000000
     0.0000000     0.0000000     0.0000000     0.0000000     0.0000000     0.0000000     0.0000000
     0.0000000     0.0000000     0.0000000     0.0000000     0.0000000     0.0000000     0.0000000
     0.0000000     0.0000000     0.0000000     0.0000000     0.0000000     0.0000000     0.0000000
     0.0000000     0.0000000     0.0000000     0.0000000     0.0000000     0.0000000     0.0000000

 Ion:   83  E_soc:     -0.2790079
 l=   1
     0.0000000    -0.0479216    -0.0484604
    -0.0479216     0.0000000    -0.0431403
    -0.0484604    -0.0431403     0.0000000
 l=   2
     0.0000000    -0.0000089     0.0000000    -0.0000028     0.0000217
    -0.0000089     0.0000000     0.0000047    -0.0000025     0.0000111
     0.0000000     0.0000047     0.0000000    -0.0000034     0.0000000
    -0.0000028    -0.0000025    -0.0000034     0.0000000    -0.0000018
     0.0000217     0.0000111     0.0000000    -0.0000018     0.0000000
 l=   3
     0.0000000     0.0000000     0.0000000     0.0000000     0.0000000     0.0000000     0.0000000
     0.0000000     0.0000000     0.0000000     0.0000000     0.0000000     0.0000000     0.0000000
     0.0000000     0.0000000     0.0000000     0.0000000     0.0000000     0.0000000     0.0000000
     0.0000000     0.0000000     0.0000000     0.0000000     0.0000000     0.0000000     0.0000000
     0.0000000     0.0000000     0.0000000     0.0000000     0.0000000     0.0000000     0.0000000
     0.0000000     0.0000000     0.0000000     0.0000000     0.0000000     0.0000000     0.0000000
     0.0000000     0.0000000     0.0000000     0.0000000     0.0000000     0.0000000     0.0000000

 Ion:   84  E_soc:     -0.2809456
 l=   1
     0.0000000    -0.0487515    -0.0488338
    -0.0487515     0.0000000    -0.0429116
    -0.0488338    -0.0429116     0.0000000
 l=   2
     0.0000000    -0.0000103     0.0000000    -0.0000028     0.0000235
    -0.0000103     0.0000000     0.0000057    -0.0000023     0.0000141
     0.0000000     0.0000057     0.0000000    -0.0000031     0.0000000
    -0.0000028    -0.0000023    -0.0000031     0.0000000    -0.0000009
     0.0000235     0.0000141     0.0000000    -0.0000009     0.0000000
 l=   3
     0.0000000     0.0000000     0.0000000     0.0000000     0.0000000     0.0000000     0.0000000
     0.0000000     0.0000000     0.0000000     0.0000000     0.0000000     0.0000000     0.0000000
     0.0000000     0.0000000     0.0000000     0.0000000     0.0000000     0.0000000     0.0000000
     0.0000000     0.0000000     0.0000000     0.0000000     0.0000000     0.0000000     0.0000000
     0.0000000     0.0000000     0.0000000     0.0000000     0.0000000     0.0000000     0.0000000
     0.0000000     0.0000000     0.0000000     0.0000000     0.0000000     0.0000000     0.0000000
     0.0000000     0.0000000     0.0000000     0.0000000     0.0000000     0.0000000     0.0000000

 Ion:   85  E_soc:     -0.2790079
 l=   1
     0.0000000    -0.0479216    -0.0484604
    -0.0479216     0.0000000    -0.0431403
    -0.0484604    -0.0431403     0.0000000
 l=   2
     0.0000000    -0.0000089     0.0000000    -0.0000028     0.0000217
    -0.0000089     0.0000000     0.0000047    -0.0000025     0.0000111
     0.0000000     0.0000047     0.0000000    -0.0000034     0.0000000
    -0.0000028    -0.0000025    -0.0000034     0.0000000    -0.0000018
     0.0000217     0.0000111     0.0000000    -0.0000018     0.0000000
 l=   3
     0.0000000     0.0000000     0.0000000     0.0000000     0.0000000     0.0000000     0.0000000
     0.0000000     0.0000000     0.0000000     0.0000000     0.0000000     0.0000000     0.0000000
     0.0000000     0.0000000     0.0000000     0.0000000     0.0000000     0.0000000     0.0000000
     0.0000000     0.0000000     0.0000000     0.0000000     0.0000000     0.0000000     0.0000000
     0.0000000     0.0000000     0.0000000     0.0000000     0.0000000     0.0000000     0.0000000
     0.0000000     0.0000000     0.0000000     0.0000000     0.0000000     0.0000000     0.0000000
     0.0000000     0.0000000     0.0000000     0.0000000     0.0000000     0.0000000     0.0000000

 Ion:   86  E_soc:     -0.2809456
 l=   1
     0.0000000    -0.0487515    -0.0488338
    -0.0487515     0.0000000    -0.0429116
    -0.0488338    -0.0429116     0.0000000
 l=   2
     0.0000000    -0.0000103     0.0000000    -0.0000028     0.0000235
    -0.0000103     0.0000000     0.0000057    -0.0000023     0.0000141
     0.0000000     0.0000057     0.0000000    -0.0000031     0.0000000
    -0.0000028    -0.0000023    -0.0000031     0.0000000    -0.0000009
     0.0000235     0.0000141     0.0000000    -0.0000009     0.0000000
 l=   3
     0.0000000     0.0000000     0.0000000     0.0000000     0.0000000     0.0000000     0.0000000
     0.0000000     0.0000000     0.0000000     0.0000000     0.0000000     0.0000000     0.0000000
     0.0000000     0.0000000     0.0000000     0.0000000     0.0000000     0.0000000     0.0000000
     0.0000000     0.0000000     0.0000000     0.0000000     0.0000000     0.0000000     0.0000000
     0.0000000     0.0000000     0.0000000     0.0000000     0.0000000     0.0000000     0.0000000
     0.0000000     0.0000000     0.0000000     0.0000000     0.0000000     0.0000000     0.0000000
     0.0000000     0.0000000     0.0000000     0.0000000     0.0000000     0.0000000     0.0000000

 Ion:   87  E_soc:     -0.2809456
 l=   1
     0.0000000    -0.0487515    -0.0488338
    -0.0487515     0.0000000    -0.0429116
    -0.0488338    -0.0429116     0.0000000
 l=   2
     0.0000000    -0.0000103     0.0000000    -0.0000028     0.0000235
    -0.0000103     0.0000000     0.0000057    -0.0000023     0.0000141
     0.0000000     0.0000057     0.0000000    -0.0000031     0.0000000
    -0.0000028    -0.0000023    -0.0000031     0.0000000    -0.0000009
     0.0000235     0.0000141     0.0000000    -0.0000009     0.0000000
 l=   3
     0.0000000     0.0000000     0.0000000     0.0000000     0.0000000     0.0000000     0.0000000
     0.0000000     0.0000000     0.0000000     0.0000000     0.0000000     0.0000000     0.0000000
     0.0000000     0.0000000     0.0000000     0.0000000     0.0000000     0.0000000     0.0000000
     0.0000000     0.0000000     0.0000000     0.0000000     0.0000000     0.0000000     0.0000000
     0.0000000     0.0000000     0.0000000     0.0000000     0.0000000     0.0000000     0.0000000
     0.0000000     0.0000000     0.0000000     0.0000000     0.0000000     0.0000000     0.0000000
     0.0000000     0.0000000     0.0000000     0.0000000     0.0000000     0.0000000     0.0000000

 Ion:   88  E_soc:     -0.2790079
 l=   1
     0.0000000    -0.0479216    -0.0484604
    -0.0479216     0.0000000    -0.0431403
    -0.0484604    -0.0431403     0.0000000
 l=   2
     0.0000000    -0.0000089     0.0000000    -0.0000028     0.0000217
    -0.0000089     0.0000000     0.0000047    -0.0000025     0.0000111
     0.0000000     0.0000047     0.0000000    -0.0000034     0.0000000
    -0.0000028    -0.0000025    -0.0000034     0.0000000    -0.0000018
     0.0000217     0.0000111     0.0000000    -0.0000018     0.0000000
 l=   3
     0.0000000     0.0000000     0.0000000     0.0000000     0.0000000     0.0000000     0.0000000
     0.0000000     0.0000000     0.0000000     0.0000000     0.0000000     0.0000000     0.0000000
     0.0000000     0.0000000     0.0000000     0.0000000     0.0000000     0.0000000     0.0000000
     0.0000000     0.0000000     0.0000000     0.0000000     0.0000000     0.0000000     0.0000000
     0.0000000     0.0000000     0.0000000     0.0000000     0.0000000     0.0000000     0.0000000
     0.0000000     0.0000000     0.0000000     0.0000000     0.0000000     0.0000000     0.0000000
     0.0000000     0.0000000     0.0000000     0.0000000     0.0000000     0.0000000     0.0000000

 Ion:   89  E_soc:     -0.2854308
 l=   1
     0.0000000    -0.0430271    -0.0494135
    -0.0430271     0.0000000    -0.0502949
    -0.0494135    -0.0502949     0.0000000
 l=   2
     0.0000000    -0.0000021     0.0000000    -0.0000078     0.0000190
    -0.0000021     0.0000000    -0.0000023    -0.0000024    -0.0000015
     0.0000000    -0.0000023     0.0000000     0.0000049     0.0000000
    -0.0000078    -0.0000024     0.0000049     0.0000000     0.0000124
     0.0000190    -0.0000015     0.0000000     0.0000124     0.0000000
 l=   3
     0.0000000     0.0000000     0.0000000     0.0000000     0.0000000     0.0000000     0.0000000
     0.0000000     0.0000000     0.0000000     0.0000000     0.0000000     0.0000000     0.0000000
     0.0000000     0.0000000     0.0000000     0.0000000     0.0000000     0.0000000     0.0000000
     0.0000000     0.0000000     0.0000000     0.0000000     0.0000000     0.0000000     0.0000000
     0.0000000     0.0000000     0.0000000     0.0000000     0.0000000     0.0000000     0.0000000
     0.0000000     0.0000000     0.0000000     0.0000000     0.0000000     0.0000000     0.0000000
     0.0000000     0.0000000     0.0000000     0.0000000     0.0000000     0.0000000     0.0000000

 Ion:   90  E_soc:     -0.2854156
 l=   1
     0.0000000    -0.0430270    -0.0494088
    -0.0430270     0.0000000    -0.0502920
    -0.0494088    -0.0502920     0.0000000
 l=   2
     0.0000000    -0.0000021     0.0000000    -0.0000078     0.0000189
    -0.0000021     0.0000000    -0.0000023    -0.0000024    -0.0000015
     0.0000000    -0.0000023     0.0000000     0.0000049     0.0000000
    -0.0000078    -0.0000024     0.0000049     0.0000000     0.0000123
     0.0000189    -0.0000015     0.0000000     0.0000123     0.0000000
 l=   3
     0.0000000     0.0000000     0.0000000     0.0000000     0.0000000     0.0000000     0.0000000
     0.0000000     0.0000000     0.0000000     0.0000000     0.0000000     0.0000000     0.0000000
     0.0000000     0.0000000     0.0000000     0.0000000     0.0000000     0.0000000     0.0000000
     0.0000000     0.0000000     0.0000000     0.0000000     0.0000000     0.0000000     0.0000000
     0.0000000     0.0000000     0.0000000     0.0000000     0.0000000     0.0000000     0.0000000
     0.0000000     0.0000000     0.0000000     0.0000000     0.0000000     0.0000000     0.0000000
     0.0000000     0.0000000     0.0000000     0.0000000     0.0000000     0.0000000     0.0000000

 Ion:   91  E_soc:     -0.2854156
 l=   1
     0.0000000    -0.0430270    -0.0494088
    -0.0430270     0.0000000    -0.0502920
    -0.0494088    -0.0502920     0.0000000
 l=   2
     0.0000000    -0.0000021     0.0000000    -0.0000078     0.0000189
    -0.0000021     0.0000000    -0.0000023    -0.0000024    -0.0000015
     0.0000000    -0.0000023     0.0000000     0.0000049     0.0000000
    -0.0000078    -0.0000024     0.0000049     0.0000000     0.0000123
     0.0000189    -0.0000015     0.0000000     0.0000123     0.0000000
 l=   3
     0.0000000     0.0000000     0.0000000     0.0000000     0.0000000     0.0000000     0.0000000
     0.0000000     0.0000000     0.0000000     0.0000000     0.0000000     0.0000000     0.0000000
     0.0000000     0.0000000     0.0000000     0.0000000     0.0000000     0.0000000     0.0000000
     0.0000000     0.0000000     0.0000000     0.0000000     0.0000000     0.0000000     0.0000000
     0.0000000     0.0000000     0.0000000     0.0000000     0.0000000     0.0000000     0.0000000
     0.0000000     0.0000000     0.0000000     0.0000000     0.0000000     0.0000000     0.0000000
     0.0000000     0.0000000     0.0000000     0.0000000     0.0000000     0.0000000     0.0000000

 Ion:   92  E_soc:     -0.2854308
 l=   1
     0.0000000    -0.0430271    -0.0494135
    -0.0430271     0.0000000    -0.0502949
    -0.0494135    -0.0502949     0.0000000
 l=   2
     0.0000000    -0.0000021     0.0000000    -0.0000078     0.0000190
    -0.0000021     0.0000000    -0.0000023    -0.0000024    -0.0000015
     0.0000000    -0.0000023     0.0000000     0.0000049     0.0000000
    -0.0000078    -0.0000024     0.0000049     0.0000000     0.0000124
     0.0000190    -0.0000015     0.0000000     0.0000124     0.0000000
 l=   3
     0.0000000     0.0000000     0.0000000     0.0000000     0.0000000     0.0000000     0.0000000
     0.0000000     0.0000000     0.0000000     0.0000000     0.0000000     0.0000000     0.0000000
     0.0000000     0.0000000     0.0000000     0.0000000     0.0000000     0.0000000     0.0000000
     0.0000000     0.0000000     0.0000000     0.0000000     0.0000000     0.0000000     0.0000000
     0.0000000     0.0000000     0.0000000     0.0000000     0.0000000     0.0000000     0.0000000
     0.0000000     0.0000000     0.0000000     0.0000000     0.0000000     0.0000000     0.0000000
     0.0000000     0.0000000     0.0000000     0.0000000     0.0000000     0.0000000     0.0000000

 Ion:   93  E_soc:     -0.2854156
 l=   1
     0.0000000    -0.0430270    -0.0494088
    -0.0430270     0.0000000    -0.0502920
    -0.0494088    -0.0502920     0.0000000
 l=   2
     0.0000000    -0.0000021     0.0000000    -0.0000078     0.0000189
    -0.0000021     0.0000000    -0.0000023    -0.0000024    -0.0000015
     0.0000000    -0.0000023     0.0000000     0.0000049     0.0000000
    -0.0000078    -0.0000024     0.0000049     0.0000000     0.0000123
     0.0000189    -0.0000015     0.0000000     0.0000123     0.0000000
 l=   3
     0.0000000     0.0000000     0.0000000     0.0000000     0.0000000     0.0000000     0.0000000
     0.0000000     0.0000000     0.0000000     0.0000000     0.0000000     0.0000000     0.0000000
     0.0000000     0.0000000     0.0000000     0.0000000     0.0000000     0.0000000     0.0000000
     0.0000000     0.0000000     0.0000000     0.0000000     0.0000000     0.0000000     0.0000000
     0.0000000     0.0000000     0.0000000     0.0000000     0.0000000     0.0000000     0.0000000
     0.0000000     0.0000000     0.0000000     0.0000000     0.0000000     0.0000000     0.0000000
     0.0000000     0.0000000     0.0000000     0.0000000     0.0000000     0.0000000     0.0000000

 Ion:   94  E_soc:     -0.2854308
 l=   1
     0.0000000    -0.0430271    -0.0494135
    -0.0430271     0.0000000    -0.0502949
    -0.0494135    -0.0502949     0.0000000
 l=   2
     0.0000000    -0.0000021     0.0000000    -0.0000078     0.0000190
    -0.0000021     0.0000000    -0.0000023    -0.0000024    -0.0000015
     0.0000000    -0.0000023     0.0000000     0.0000049     0.0000000
    -0.0000078    -0.0000024     0.0000049     0.0000000     0.0000124
     0.0000190    -0.0000015     0.0000000     0.0000124     0.0000000
 l=   3
     0.0000000     0.0000000     0.0000000     0.0000000     0.0000000     0.0000000     0.0000000
     0.0000000     0.0000000     0.0000000     0.0000000     0.0000000     0.0000000     0.0000000
     0.0000000     0.0000000     0.0000000     0.0000000     0.0000000     0.0000000     0.0000000
     0.0000000     0.0000000     0.0000000     0.0000000     0.0000000     0.0000000     0.0000000
     0.0000000     0.0000000     0.0000000     0.0000000     0.0000000     0.0000000     0.0000000
     0.0000000     0.0000000     0.0000000     0.0000000     0.0000000     0.0000000     0.0000000
     0.0000000     0.0000000     0.0000000     0.0000000     0.0000000     0.0000000     0.0000000

 Ion:   95  E_soc:     -0.2854308
 l=   1
     0.0000000    -0.0430271    -0.0494135
    -0.0430271     0.0000000    -0.0502949
    -0.0494135    -0.0502949     0.0000000
 l=   2
     0.0000000    -0.0000021     0.0000000    -0.0000078     0.0000190
    -0.0000021     0.0000000    -0.0000023    -0.0000024    -0.0000015
     0.0000000    -0.0000023     0.0000000     0.0000049     0.0000000
    -0.0000078    -0.0000024     0.0000049     0.0000000     0.0000124
     0.0000190    -0.0000015     0.0000000     0.0000124     0.0000000
 l=   3
     0.0000000     0.0000000     0.0000000     0.0000000     0.0000000     0.0000000     0.0000000
     0.0000000     0.0000000     0.0000000     0.0000000     0.0000000     0.0000000     0.0000000
     0.0000000     0.0000000     0.0000000     0.0000000     0.0000000     0.0000000     0.0000000
     0.0000000     0.0000000     0.0000000     0.0000000     0.0000000     0.0000000     0.0000000
     0.0000000     0.0000000     0.0000000     0.0000000     0.0000000     0.0000000     0.0000000
     0.0000000     0.0000000     0.0000000     0.0000000     0.0000000     0.0000000     0.0000000
     0.0000000     0.0000000     0.0000000     0.0000000     0.0000000     0.0000000     0.0000000

 Ion:   96  E_soc:     -0.2854156
 l=   1
     0.0000000    -0.0430270    -0.0494088
    -0.0430270     0.0000000    -0.0502920
    -0.0494088    -0.0502920     0.0000000
 l=   2
     0.0000000    -0.0000021     0.0000000    -0.0000078     0.0000189
    -0.0000021     0.0000000    -0.0000023    -0.0000024    -0.0000015
     0.0000000    -0.0000023     0.0000000     0.0000049     0.0000000
    -0.0000078    -0.0000024     0.0000049     0.0000000     0.0000123
     0.0000189    -0.0000015     0.0000000     0.0000123     0.0000000
 l=   3
     0.0000000     0.0000000     0.0000000     0.0000000     0.0000000     0.0000000     0.0000000
     0.0000000     0.0000000     0.0000000     0.0000000     0.0000000     0.0000000     0.0000000
     0.0000000     0.0000000     0.0000000     0.0000000     0.0000000     0.0000000     0.0000000
     0.0000000     0.0000000     0.0000000     0.0000000     0.0000000     0.0000000     0.0000000
     0.0000000     0.0000000     0.0000000     0.0000000     0.0000000     0.0000000     0.0000000
     0.0000000     0.0000000     0.0000000     0.0000000     0.0000000     0.0000000     0.0000000
     0.0000000     0.0000000     0.0000000     0.0000000     0.0000000     0.0000000     0.0000000

 total amount of memory used by VASP on root node   480019. kBytes
========================================================================

   base      :      30000. kBytes
   nonl-proj :     147671. kBytes
   fftplans  :      24736. kBytes
   grid      :      43352. kBytes
   one-center:        497. kBytes
   wavefun   :     233763. kBytes
 
  
  
 General timing and accounting informations for this job:
 ========================================================
  
                  Total CPU time used (sec):     1204.067
                            User time (sec):     1199.811
                          System time (sec):        4.256
                         Elapsed time (sec):     1211.343
  
                   Maximum memory used (kb):      480996.
                   Average memory used (kb):           0.
  
                          Minor page faults:       760620
                          Major page faults:            0
                 Voluntary context switches:         1302
