  96  96   0   0
  0.2080188E+02  0.1257760E-08  0.1245754E-08  0.1274818E-08  0.5000000E-15
  1.000000000000000E-004
  CAR 
 MAPbI3-Cubic                            
      8.91058654    -19.60675925  301      1.44854773      1.00000000
    -19.607  0.0000E+00  0.0000E+00
    -19.512  0.0000E+00  0.0000E+00
    -19.417  0.0000E+00  0.0000E+00
    -19.322  0.0000E+00  0.0000E+00
    -19.227  0.0000E+00  0.0000E+00
    -19.131  0.0000E+00  0.0000E+00
    -19.036  0.0000E+00  0.0000E+00
    -18.941  0.0000E+00  0.0000E+00
    -18.846  0.0000E+00  0.0000E+00
    -18.751  0.0000E+00  0.0000E+00
    -18.656  0.0000E+00  0.0000E+00
    -18.561  0.0000E+00  0.0000E+00
    -18.466  0.0000E+00  0.0000E+00
    -18.371  0.0000E+00  0.0000E+00
    -18.276  0.0000E+00  0.1600E+02
    -18.181  0.0000E+00  0.1600E+02
    -18.086  0.0000E+00  0.1600E+02
    -17.991  0.0000E+00  0.1600E+02
    -17.896  0.0000E+00  0.1600E+02
    -17.801  0.0000E+00  0.1600E+02
    -17.706  0.0000E+00  0.1600E+02
    -17.611  0.0000E+00  0.1600E+02
    -17.515  0.0000E+00  0.1600E+02
    -17.420  0.0000E+00  0.1600E+02
    -17.325  0.0000E+00  0.1600E+02
    -17.230  0.0000E+00  0.1600E+02
    -17.135  0.0000E+00  0.1600E+02
    -17.040  0.0000E+00  0.1600E+02
    -16.945  0.0000E+00  0.1600E+02
    -16.850  0.0000E+00  0.1600E+02
    -16.755  0.0000E+00  0.1600E+02
    -16.660  0.0000E+00  0.1600E+02
    -16.565  0.0000E+00  0.1600E+02
    -16.470  0.0000E+00  0.1600E+02
    -16.375  0.0000E+00  0.1600E+02
    -16.280  0.0000E+00  0.1600E+02
    -16.185  0.0000E+00  0.1600E+02
    -16.090  0.0000E+00  0.1600E+02
    -15.995  0.0000E+00  0.1600E+02
    -15.900  0.0000E+00  0.1600E+02
    -15.804  0.0000E+00  0.1600E+02
    -15.709  0.0000E+00  0.1600E+02
    -15.614  0.0000E+00  0.1600E+02
    -15.519  0.0000E+00  0.1600E+02
    -15.424  0.0000E+00  0.1600E+02
    -15.329  0.0000E+00  0.1600E+02
    -15.234  0.0000E+00  0.1600E+02
    -15.139  0.0000E+00  0.1600E+02
    -15.044  0.5221E+02  0.4800E+02
    -14.949  0.0000E+00  0.9600E+02
    -14.854  0.0000E+00  0.9600E+02
    -14.759  0.0000E+00  0.9600E+02
    -14.664  0.0000E+00  0.9600E+02
    -14.569  0.0000E+00  0.9600E+02
    -14.474  0.0000E+00  0.9600E+02
    -14.379  0.0000E+00  0.9600E+02
    -14.284  0.0000E+00  0.9600E+02
    -14.188  0.0000E+00  0.9600E+02
    -14.093  0.0000E+00  0.9600E+02
    -13.998  0.0000E+00  0.9600E+02
    -13.903  0.0000E+00  0.9600E+02
    -13.808  0.0000E+00  0.9600E+02
    -13.713  0.0000E+00  0.9600E+02
    -13.618  0.0000E+00  0.9600E+02
    -13.523  0.0000E+00  0.9600E+02
    -13.428  0.0000E+00  0.9600E+02
    -13.333  0.0000E+00  0.9600E+02
    -13.238  0.0000E+00  0.9600E+02
    -13.143  0.0000E+00  0.9600E+02
    -13.048  0.0000E+00  0.9600E+02
    -12.953  0.0000E+00  0.9600E+02
    -12.858  0.0000E+00  0.9600E+02
    -12.763  0.0000E+00  0.9600E+02
    -12.668  0.0000E+00  0.9600E+02
    -12.572  0.0000E+00  0.9600E+02
    -12.477  0.0000E+00  0.9600E+02
    -12.382  0.0000E+00  0.9600E+02
    -12.287  0.0000E+00  0.9600E+02
    -12.192  0.0000E+00  0.9600E+02
    -12.097  0.0000E+00  0.9600E+02
    -12.002  0.0000E+00  0.9600E+02
    -11.907  0.0000E+00  0.9600E+02
    -11.812  0.0000E+00  0.9600E+02
    -11.717  0.0000E+00  0.9600E+02
    -11.622  0.0000E+00  0.9600E+02
    -11.527  0.0000E+00  0.9600E+02
    -11.432  0.0000E+00  0.9600E+02
    -11.337  0.3700E+02  0.1075E+03
    -11.242  0.0000E+00  0.1120E+03
    -11.147  0.0000E+00  0.1120E+03
    -11.052  0.0000E+00  0.1120E+03
    -10.956  0.0000E+00  0.1120E+03
    -10.861  0.0000E+00  0.1120E+03
    -10.766  0.7792E+01  0.1133E+03
    -10.671  0.4984E+01  0.1155E+03
    -10.576  0.4399E+01  0.1212E+03
    -10.481  0.6560E+01  0.1271E+03
    -10.386  0.0000E+00  0.1291E+03
    -10.291  0.6232E+01  0.1366E+03
    -10.196  0.6234E+01  0.1415E+03
    -10.101  0.0000E+00  0.1442E+03
    -10.006  0.1081E+02  0.1541E+03
     -9.911  0.1558E+01  0.1596E+03
     -9.816  0.0000E+00  0.1600E+03
     -9.721  0.0000E+00  0.1600E+03
     -9.626  0.0000E+00  0.1600E+03
     -9.531  0.0000E+00  0.1600E+03
     -9.436  0.0000E+00  0.1600E+03
     -9.341  0.0000E+00  0.1600E+03
     -9.245  0.0000E+00  0.1600E+03
     -9.150  0.0000E+00  0.1600E+03
     -9.055  0.0000E+00  0.1600E+03
     -8.960  0.0000E+00  0.1600E+03
     -8.865  0.0000E+00  0.1600E+03
     -8.770  0.0000E+00  0.1600E+03
     -8.675  0.0000E+00  0.1600E+03
     -8.580  0.0000E+00  0.1600E+03
     -8.485  0.0000E+00  0.1600E+03
     -8.390  0.0000E+00  0.1600E+03
     -8.295  0.0000E+00  0.1600E+03
     -8.200  0.0000E+00  0.1600E+03
     -8.105  0.0000E+00  0.1600E+03
     -8.010  0.0000E+00  0.1600E+03
     -7.915  0.0000E+00  0.1600E+03
     -7.820  0.0000E+00  0.1600E+03
     -7.725  0.1876E+02  0.1732E+03
     -7.629  0.0000E+00  0.1920E+03
     -7.534  0.0000E+00  0.1920E+03
     -7.439  0.0000E+00  0.1920E+03
     -7.344  0.0000E+00  0.1920E+03
     -7.249  0.0000E+00  0.1920E+03
     -7.154  0.0000E+00  0.1920E+03
     -7.059  0.7610E-02  0.1920E+03
     -6.964  0.0000E+00  0.1921E+03
     -6.869  0.0000E+00  0.1925E+03
     -6.774  0.0000E+00  0.1934E+03
     -6.679  0.2604E+01  0.1940E+03
     -6.584  0.0000E+00  0.1944E+03
     -6.489  0.3117E+01  0.1963E+03
     -6.394  0.3117E+01  0.1982E+03
     -6.299  0.5687E-07  0.1991E+03
     -6.204  0.0000E+00  0.2009E+03
     -6.109  0.0000E+00  0.2031E+03
     -6.013  0.3461E-15  0.2044E+03
     -5.918  0.3117E+01  0.2061E+03
     -5.823  0.1917E+02  0.2123E+03
     -5.728  0.0000E+00  0.2226E+03
     -5.633  0.0000E+00  0.2235E+03
     -5.538  0.1559E+01  0.2238E+03
     -5.443  0.0000E+00  0.2239E+03
     -5.348  0.0000E+00  0.2240E+03
     -5.253  0.0000E+00  0.2240E+03
     -5.158  0.0000E+00  0.2240E+03
     -5.063  0.0000E+00  0.2240E+03
     -4.968  0.0000E+00  0.2240E+03
     -4.873  0.0000E+00  0.2240E+03
     -4.778  0.0000E+00  0.2240E+03
     -4.683  0.0000E+00  0.2240E+03
     -4.588  0.0000E+00  0.2240E+03
     -4.493  0.0000E+00  0.2240E+03
     -4.398  0.0000E+00  0.2240E+03
     -4.302  0.0000E+00  0.2240E+03
     -4.207  0.0000E+00  0.2240E+03
     -4.112  0.0000E+00  0.2240E+03
     -4.017  0.0000E+00  0.2240E+03
     -3.922  0.0000E+00  0.2240E+03
     -3.827  0.0000E+00  0.2240E+03
     -3.732  0.0000E+00  0.2240E+03
     -3.637  0.1201E-12  0.2240E+03
     -3.542  0.2987E+02  0.2428E+03
     -3.447  0.0000E+00  0.2560E+03
     -3.352  0.0000E+00  0.2560E+03
     -3.257  0.0000E+00  0.2560E+03
     -3.162  0.0000E+00  0.2560E+03
     -3.067  0.0000E+00  0.2560E+03
     -2.972  0.0000E+00  0.2560E+03
     -2.877  0.0000E+00  0.2560E+03
     -2.782  0.0000E+00  0.2560E+03
     -2.686  0.0000E+00  0.2560E+03
     -2.591  0.0000E+00  0.2560E+03
     -2.496  0.0000E+00  0.2560E+03
     -2.401  0.0000E+00  0.2560E+03
     -2.306  0.0000E+00  0.2560E+03
     -2.211  0.0000E+00  0.2560E+03
     -2.116  0.1526E+01  0.2561E+03
     -2.021  0.1490E+01  0.2585E+03
     -1.926  0.7451E+00  0.2616E+03
     -1.831  0.7793E+00  0.2636E+03
     -1.736  0.5204E-01  0.2659E+03
     -1.641  0.1571E+01  0.2686E+03
     -1.546  0.2167E-06  0.2724E+03
     -1.451  0.3919E+01  0.2759E+03
     -1.356  0.0000E+00  0.2787E+03
     -1.261  0.9294E-05  0.2796E+03
     -1.166  0.0000E+00  0.2800E+03
     -1.070  0.0000E+00  0.2800E+03
     -0.975  0.3117E+01  0.2810E+03
     -0.880  0.0000E+00  0.2850E+03
     -0.785  0.4831E+01  0.2918E+03
     -0.690  0.1246E+02  0.2974E+03
     -0.595  0.3117E+01  0.3025E+03
     -0.500  0.0000E+00  0.3057E+03
     -0.405  0.5911E+01  0.3093E+03
     -0.310  0.5254E+01  0.3143E+03
     -0.215  0.1607E+01  0.3201E+03
     -0.120  0.7369E+01  0.3279E+03
     -0.025  0.7793E+01  0.3336E+03
      0.070  0.9305E+01  0.3397E+03
      0.165  0.3895E+01  0.3479E+03
      0.260  0.8048E+01  0.3568E+03
      0.355  0.6964E+01  0.3636E+03
      0.450  0.6092E+01  0.3712E+03
      0.545  0.3438E+01  0.3810E+03
      0.641  0.5452E+01  0.3867E+03
      0.736  0.7886E+01  0.3924E+03
      0.831  0.2199E+01  0.3958E+03
      0.926  0.0000E+00  0.3975E+03
      1.021  0.1559E+01  0.3988E+03
      1.116  0.0000E+00  0.3993E+03
      1.211  0.2141E-06  0.3996E+03
      1.306  0.0000E+00  0.3999E+03
      1.401  0.6307E-07  0.3999E+03
      1.496  0.0000E+00  0.4000E+03
      1.591  0.0000E+00  0.4000E+03
      1.686  0.0000E+00  0.4000E+03
      1.781  0.0000E+00  0.4000E+03
      1.876  0.0000E+00  0.4000E+03
      1.971  0.0000E+00  0.4000E+03
      2.066  0.0000E+00  0.4000E+03
      2.161  0.0000E+00  0.4000E+03
      2.257  0.0000E+00  0.4000E+03
      2.352  0.0000E+00  0.4000E+03
      2.447  0.0000E+00  0.4000E+03
      2.542  0.0000E+00  0.4000E+03
      2.637  0.0000E+00  0.4000E+03
      2.732  0.0000E+00  0.4000E+03
      2.827  0.0000E+00  0.4000E+03
      2.922  0.0000E+00  0.4000E+03
      3.017  0.0000E+00  0.4005E+03
      3.112  0.0000E+00  0.4007E+03
      3.207  0.7793E+00  0.4014E+03
      3.302  0.0000E+00  0.4029E+03
      3.397  0.0000E+00  0.4038E+03
      3.492  0.1449E+01  0.4057E+03
      3.587  0.7793E+00  0.4067E+03
      3.682  0.0000E+00  0.4077E+03
      3.777  0.0000E+00  0.4083E+03
      3.873  0.3117E+01  0.4093E+03
      3.968  0.1302E+01  0.4100E+03
      4.063  0.3018E+01  0.4111E+03
      4.158  0.4587E+01  0.4135E+03
      4.253  0.1558E+01  0.4151E+03
      4.348  0.3117E+01  0.4169E+03
      4.443  0.3119E+01  0.4199E+03
      4.538  0.0000E+00  0.4227E+03
      4.633  0.2669E+01  0.4238E+03
      4.728  0.0000E+00  0.4239E+03
      4.823  0.0000E+00  0.4240E+03
      4.918  0.0000E+00  0.4240E+03
      5.013  0.0000E+00  0.4241E+03
      5.108  0.0000E+00  0.4242E+03
      5.203  0.1558E+01  0.4247E+03
      5.298  0.3117E+01  0.4263E+03
      5.393  0.7997E+01  0.4288E+03
      5.489  0.6234E+01  0.4311E+03
      5.584  0.2031E+01  0.4357E+03
      5.679  0.1559E+01  0.4381E+03
      5.774  0.4812E+01  0.4410E+03
      5.869  0.1559E+01  0.4422E+03
      5.964  0.1855E-12  0.4454E+03
      6.059  0.5840E+01  0.4493E+03
      6.154  0.6266E+01  0.4527E+03
      6.249  0.2569E-01  0.4582E+03
      6.344  0.6234E+01  0.4613E+03
      6.439  0.6302E+01  0.4645E+03
      6.534  0.9465E+01  0.4710E+03
      6.629  0.8411E+01  0.4752E+03
      6.724  0.1616E+01  0.4788E+03
      6.819  0.4672E+01  0.4820E+03
      6.914  0.5455E+01  0.4859E+03
      7.009  0.3115E+01  0.4900E+03
      7.104  0.7857E+00  0.4933E+03
      7.200  0.0000E+00  0.4981E+03
      7.295  0.3896E+01  0.5023E+03
      7.390  0.3127E+01  0.5056E+03
      7.485  0.1559E+01  0.5094E+03
      7.580  0.4667E+01  0.5119E+03
      7.675  0.0000E+00  0.5120E+03
      7.770  0.0000E+00  0.5120E+03
      7.865  0.0000E+00  0.5120E+03
      7.960  0.0000E+00  0.5120E+03
      8.055  0.0000E+00  0.5120E+03
      8.150  0.0000E+00  0.5120E+03
      8.245  0.0000E+00  0.5120E+03
      8.340  0.0000E+00  0.5120E+03
      8.435  0.0000E+00  0.5120E+03
      8.530  0.0000E+00  0.5120E+03
      8.625  0.0000E+00  0.5120E+03
      8.720  0.0000E+00  0.5120E+03
      8.816  0.0000E+00  0.5120E+03
      8.911  0.0000E+00  0.5120E+03
