 running on   24 total cores
 distrk:  each k-point on   24 cores,    1 groups
 distr:  one band on    3 cores,    8 groups
 using from now: INCAR     
 vasp.5.4.1 24Jun15 (build Nov 25 2015 16:01:35) complex                        
  
 POSCAR found type information on POSCAR  C  N  H  Pb I 
 POSCAR found :  5 types and      96 ions
 scaLAPACK will be used

 ----------------------------------------------------------------------------- 
|                                                                             |
|  ADVICE TO THIS USER RUNNING 'VASP/VAMP'   (HEAR YOUR MASTER'S VOICE ...):  |
|                                                                             |
|      You have a (more or less) 'large supercell' and for larger cells       |
|      it might be more efficient to use real space projection opertators     |
|      So try LREAL= Auto  in the INCAR   file.                               |
|      Mind: At the moment your POTCAR file does not contain real space       |
|       projectors, and has to be modified,  BUT if you                       |
|      want to do an extremely  accurate calculation you might also keep the  |
|      reciprocal projection scheme          (i.e. LREAL=.FALSE.)             |
|                                                                             |
 ----------------------------------------------------------------------------- 


 ----------------------------------------------------------------------------- 
|                                                                             |
|  ADVICE TO THIS USER RUNNING 'VASP/VAMP'   (HEAR YOUR MASTER'S VOICE ...):  |
|                                                                             |
|      You enforced a specific xc-type in the INCAR file,                     |
|      a different type was found on the POTCAR file                          |
|          I HOPE YOU KNOW, WHAT YOU ARE  DOING                               |
|                                                                             |
 ----------------------------------------------------------------------------- 

 LDA part: xc-table for Pade appr. of Perdew
 POSCAR, INCAR and KPOINTS ok, starting setup
 WARNING: small aliasing (wrap around) errors must be expected
 FFT: planning ...
 WAVECAR not read
 entering main loop
       N       E                     dE             d eps       ncg     rms          rms(c)
DAV:   1     0.360346018563E+04    0.36035E+04   -0.18949E+05  7176   0.170E+03
DAV:   2     0.198235516461E+03   -0.34052E+04   -0.32095E+04  8008   0.355E+02
DAV:   3    -0.398840780619E+03   -0.59708E+03   -0.58822E+03  9472   0.172E+02
DAV:   4    -0.438732598219E+03   -0.39892E+02   -0.39719E+02  9616   0.488E+01
DAV:   5    -0.440231373620E+03   -0.14988E+01   -0.14966E+01  9776   0.918E+00    0.298E+01
DAV:   6    -0.419539651686E+03    0.20692E+02   -0.41936E+01  9440   0.103E+01    0.158E+01
DAV:   7    -0.417053739350E+03    0.24859E+01   -0.14588E+01 10240   0.636E+00    0.783E+00
DAV:   8    -0.416881381462E+03    0.17236E+00   -0.30059E+00  8600   0.315E+00    0.181E+00
DAV:   9    -0.416812025720E+03    0.69356E-01   -0.73613E-01  9400   0.173E+00    0.729E-01
DAV:  10    -0.416823419046E+03   -0.11393E-01   -0.10288E-01  8992   0.567E-01    0.438E-01
DAV:  11    -0.416823603448E+03   -0.18440E-03   -0.12308E-02  9880   0.260E-01    0.194E-01
DAV:  12    -0.416825005547E+03   -0.14021E-02   -0.89031E-03  9736   0.150E-01    0.105E-01
DAV:  13    -0.416825140230E+03   -0.13468E-03   -0.13273E-03  8496   0.752E-02    0.703E-02
DAV:  14    -0.416825180975E+03   -0.40744E-04   -0.27502E-04  8528   0.289E-02    0.291E-02
DAV:  15    -0.416825224371E+03   -0.43396E-04   -0.13729E-04  8096   0.193E-02    0.115E-02
DAV:  16    -0.416825228196E+03   -0.38254E-05   -0.13769E-05 10520   0.714E-03    0.117E-02
DAV:  17    -0.416825228062E+03    0.13405E-06   -0.44460E-06  8128   0.370E-03    0.478E-03
DAV:  18    -0.416825228088E+03   -0.25921E-07   -0.75469E-06  9416   0.428E-03    0.377E-03
DAV:  19    -0.416825228032E+03    0.56047E-07   -0.74041E-07  7640   0.202E-03    0.216E-03
DAV:  20    -0.416825228053E+03   -0.21351E-07   -0.40471E-07  8472   0.990E-04    0.459E-04
DAV:  21    -0.416825228083E+03   -0.29540E-07   -0.33967E-08  6248   0.398E-04    0.355E-04
DAV:  22    -0.416825228080E+03    0.31032E-08   -0.76535E-09  4856   0.265E-04
   1 F= -.41682523E+03 E0= -.41682523E+03  d E =0.000000E+00
Application 22057105 resources: utime ~167628s, stime ~100s, Rss ~640292, inblocks ~184891, outblocks ~194552
