   12   12    1    1
  0.2070820E+02  0.6290120E-09  0.6273890E-09  0.6297040E-09  0.5000000E-15
  1.000000000000000E-004
  CAR 
 Name                                    
     50    515     52
 
  0.0000000E+00  0.0000000E+00  0.0000000E+00  0.4629630E-02
    1      -18.154589   1.000000
    2      -15.200729   1.000000
    3      -15.177241   1.000000
    4      -15.128506   1.000000
    5      -15.111213   1.000000
    6      -15.107003   1.000000
    7      -11.262204   1.000000
    8      -10.956171   1.000000
    9      -10.252576   1.000000
   10       -9.975464   1.000000
   11       -7.829829   1.000000
   12       -7.666705   1.000000
   13       -5.866590   1.000000
   14       -5.479775   1.000000
   15       -3.537406   1.000000
   16       -3.521786   1.000000
   17       -2.236199   1.000000
   18       -2.235733   1.000000
   19       -2.083303   1.000000
   20       -0.109027   1.000000
   21       -0.074919   1.000000
   22        0.003011   1.000000
   23        0.131909   1.000000
   24        0.401935   1.000000
   25        0.413299   1.000000
   26        4.739567   0.000000
   27        5.785530   0.000000
   28        5.923542   0.000000
   29        6.101202   0.000000
   30        6.232525   0.000000
   31        6.349158   0.000000
   32        7.039286   0.000000
   33        7.456228   0.000000
   34        7.642081   0.000000
   35        8.234393   0.000000
   36        8.658306   0.000000
   37        8.852243   0.000000
   38        9.177029   0.000000
   39        9.654432   0.000000
   40        9.900446   0.000000
   41        9.983756   0.000000
   42       10.259319   0.000000
   43       10.345120   0.000000
   44       11.543983   0.000000
   45       11.631075   0.000000
   46       11.712474   0.000000
   47       12.143051   0.000000
   48       12.391951   0.000000
   49       12.725187   0.000000
   50       12.834271   0.000000
   51       12.846053   0.000000
   52       13.577117   0.000000
 
  0.1666667E+00  0.0000000E+00  0.0000000E+00  0.9259259E-02
    1      -18.154275   1.000000
    2      -15.200717   1.000000
    3      -15.174129   1.000000
    4      -15.128503   1.000000
    5      -15.111375   1.000000
    6      -15.107146   1.000000
    7      -11.291938   1.000000
    8      -10.896674   1.000000
    9      -10.251994   1.000000
   10      -10.010574   1.000000
   11       -7.827366   1.000000
   12       -7.664077   1.000000
   13       -5.884528   1.000000
   14       -5.631454   1.000000
   15       -3.562380   1.000000
   16       -3.544427   1.000000
   17       -2.207835   1.000000
   18       -2.196334   1.000000
   19       -1.674873   1.000000
   20       -0.082671   1.000000
   21       -0.080277   1.000000
   22        0.004998   1.000000
   23        0.144503   1.000000
   24        0.338127   1.000000
   25        0.358196   1.000000
   26        4.868598   0.000000
   27        5.776686   0.000000
   28        5.863182   0.000000
   29        6.046706   0.000000
   30        6.284498   0.000000
   31        6.370577   0.000000
   32        6.482417   0.000000
   33        7.512554   0.000000
   34        7.636919   0.000000
   35        8.340150   0.000000
   36        8.493582   0.000000
   37        8.741589   0.000000
   38        8.893207   0.000000
   39        9.498169   0.000000
   40       10.042592   0.000000
   41       10.249672   0.000000
   42       10.422870   0.000000
   43       10.735087   0.000000
   44       11.421906   0.000000
   45       11.744386   0.000000
   46       11.851392   0.000000
   47       12.160841   0.000000
   48       12.357976   0.000000
   49       12.527173   0.000000
   50       12.582264   0.000000
   51       12.840367   0.000000
   52       13.118466   0.000000
 
  0.3333333E+00  0.0000000E+00  0.0000000E+00  0.9259259E-02
    1      -18.153655   1.000000
    2      -15.200700   1.000000
    3      -15.167889   1.000000
    4      -15.128507   1.000000
    5      -15.111707   1.000000
    6      -15.107444   1.000000
    7      -11.336153   1.000000
    8      -10.777977   1.000000
    9      -10.250643   1.000000
   10      -10.097299   1.000000
   11       -7.822362   1.000000
   12       -7.658817   1.000000
   13       -5.996905   1.000000
   14       -5.792343   1.000000
   15       -3.609968   1.000000
   16       -3.588052   1.000000
   17       -2.136661   1.000000
   18       -2.115606   1.000000
   19       -0.921950   1.000000
   20       -0.132462   1.000000
   21       -0.032733   1.000000
   22        0.049272   1.000000
   23        0.211898   1.000000
   24        0.231625   1.000000
   25        0.355187   1.000000
   26        4.473476   0.000000
   27        5.082988   0.000000
   28        5.806602   0.000000
   29        5.985097   0.000000
   30        6.255626   0.000000
   31        6.743924   0.000000
   32        6.865954   0.000000
   33        7.402633   0.000000
   34        7.617745   0.000000
   35        7.942249   0.000000
   36        8.591139   0.000000
   37        8.750972   0.000000
   38        8.921540   0.000000
   39        9.487990   0.000000
   40        9.864160   0.000000
   41       10.421303   0.000000
   42       10.526071   0.000000
   43       10.791013   0.000000
   44       11.150885   0.000000
   45       11.574312   0.000000
   46       12.005962   0.000000
   47       12.027815   0.000000
   48       12.098615   0.000000
   49       12.320581   0.000000
   50       12.615193   0.000000
   51       12.675594   0.000000
   52       13.020504   0.000000
 
  0.5000000E+00  0.0000000E+00  0.0000000E+00  0.4629630E-02
    1      -18.153379   1.000000
    2      -15.200694   1.000000
    3      -15.164756   1.000000
    4      -15.128515   1.000000
    5      -15.111890   1.000000
    6      -15.107603   1.000000
    7      -11.354164   1.000000
    8      -10.710244   1.000000
    9      -10.249469   1.000000
   10      -10.154381   1.000000
   11       -7.819893   1.000000
   12       -7.656185   1.000000
   13       -6.088001   1.000000
   14       -5.815827   1.000000
   15       -3.632703   1.000000
   16       -3.609048   1.000000
   17       -2.099112   1.000000
   18       -2.073836   1.000000
   19       -0.638773   1.000000
   20       -0.164034   1.000000
   21       -0.012383   1.000000
   22        0.077535   1.000000
   23        0.152306   1.000000
   24        0.180900   1.000000
   25        0.721640   1.000000
   26        3.611526   0.000000
   27        5.016412   0.000000
   28        5.840351   0.000000
   29        6.230735   0.000000
   30        6.294470   0.000000
   31        6.914209   0.000000
   32        7.256130   0.000000
   33        7.260095   0.000000
   34        7.586636   0.000000
   35        7.712786   0.000000
   36        8.306101   0.000000
   37        8.743410   0.000000
   38        9.362801   0.000000
   39        9.695004   0.000000
   40        9.871639   0.000000
   41       10.027269   0.000000
   42       10.077767   0.000000
   43       10.731674   0.000000
   44       11.325433   0.000000
   45       11.334164   0.000000
   46       11.789722   0.000000
   47       11.961456   0.000000
   48       12.128074   0.000000
   49       12.348065   0.000000
   50       12.582470   0.000000
   51       13.029743   0.000000
   52       13.110920   0.000000
 
  0.0000000E+00  0.1666667E+00  0.0000000E+00  0.9259259E-02
    1      -18.154273   1.000000
    2      -15.198373   1.000000
    3      -15.176102   1.000000
    4      -15.128673   1.000000
    5      -15.111213   1.000000
    6      -15.107191   1.000000
    7      -11.257252   1.000000
    8      -10.923790   1.000000
    9      -10.291488   1.000000
   10       -9.992961   1.000000
   11       -7.806654   1.000000
   12       -7.667801   1.000000
   13       -5.887266   1.000000
   14       -5.640344   1.000000
   15       -3.552320   1.000000
   16       -3.519754   1.000000
   17       -2.219222   1.000000
   18       -2.093355   1.000000
   19       -1.758783   1.000000
   20       -0.201342   1.000000
   21       -0.080776   1.000000
   22       -0.001312   1.000000
   23        0.099789   1.000000
   24        0.372278   1.000000
   25        0.414643   1.000000
   26        4.953873   0.000000
   27        5.615754   0.000000
   28        5.875170   0.000000
   29        6.169640   0.000000
   30        6.336724   0.000000
   31        6.502138   0.000000
   32        6.930634   0.000000
   33        7.154954   0.000000
   34        7.639528   0.000000
   35        8.077787   0.000000
   36        8.629980   0.000000
   37        8.752970   0.000000
   38        9.250680   0.000000
   39        9.365870   0.000000
   40        9.636963   0.000000
   41        9.916763   0.000000
   42       10.143982   0.000000
   43       10.810287   0.000000
   44       11.226377   0.000000
   45       11.487990   0.000000
   46       11.671490   0.000000
   47       12.050317   0.000000
   48       12.244366   0.000000
   49       12.502471   0.000000
   50       12.856771   0.000000
   51       13.294769   0.000000
   52       13.475008   0.000000
 
  0.1666667E+00  0.1666667E+00  0.0000000E+00  0.9259259E-02
    1      -18.153946   1.000000
    2      -15.198330   1.000000
    3      -15.173005   1.000000
    4      -15.128672   1.000000
    5      -15.111373   1.000000
    6      -15.107339   1.000000
    7      -11.282468   1.000000
    8      -10.870242   1.000000
    9      -10.290369   1.000000
   10      -10.024752   1.000000
   11       -7.805603   1.000000
   12       -7.665533   1.000000
   13       -5.932618   1.000000
   14       -5.757441   1.000000
   15       -3.569577   1.000000
   16       -3.535513   1.000000
   17       -2.199586   1.000000
   18       -1.856461   1.000000
   19       -1.551527   1.000000
   20       -0.191958   1.000000
   21       -0.121651   1.000000
   22       -0.023308   1.000000
   23        0.111792   1.000000
   24        0.345014   1.000000
   25        0.410183   1.000000
   26        5.043874   0.000000
   27        5.530542   0.000000
   28        5.852284   0.000000
   29        6.135676   0.000000
   30        6.294955   0.000000
   31        6.388277   0.000000
   32        6.602627   0.000000
   33        7.237937   0.000000
   34        7.624772   0.000000
   35        8.157353   0.000000
   36        8.472812   0.000000
   37        8.614471   0.000000
   38        9.103231   0.000000
   39        9.457501   0.000000
   40        9.827586   0.000000
   41       10.078073   0.000000
   42       10.195120   0.000000
   43       10.781686   0.000000
   44       11.217198   0.000000
   45       11.605155   0.000000
   46       11.787587   0.000000
   47       11.903914   0.000000
   48       12.354386   0.000000
   49       12.518868   0.000000
   50       12.739631   0.000000
   51       12.964582   0.000000
   52       13.392396   0.000000
 
  0.3333333E+00  0.1666667E+00  0.0000000E+00  0.9259259E-02
    1      -18.153351   1.000000
    2      -15.198279   1.000000
    3      -15.166776   1.000000
    4      -15.128671   1.000000
    5      -15.111705   1.000000
    6      -15.107636   1.000000
    7      -11.322034   1.000000
    8      -10.760192   1.000000
    9      -10.288132   1.000000
   10      -10.103523   1.000000
   11       -7.803401   1.000000
   12       -7.660974   1.000000
   13       -6.135145   1.000000
   14       -5.820392   1.000000
   15       -3.602936   1.000000
   16       -3.569449   1.000000
   17       -2.134336   1.000000
   18       -1.718304   1.000000
   19       -0.887347   1.000000
   20       -0.248376   1.000000
   21       -0.122284   1.000000
   22        0.006423   1.000000
   23        0.158261   1.000000
   24        0.319790   1.000000
   25        0.458166   1.000000
   26        4.405664   0.000000
   27        5.203920   0.000000
   28        5.591561   0.000000
   29        6.101590   0.000000
   30        6.205396   0.000000
   31        6.618981   0.000000
   32        6.940466   0.000000
   33        7.348516   0.000000
   34        7.481151   0.000000
   35        8.033039   0.000000
   36        8.601990   0.000000
   37        8.744829   0.000000
   38        8.946249   0.000000
   39        9.376636   0.000000
   40        9.836989   0.000000
   41       10.114606   0.000000
   42       10.490935   0.000000
   43       10.646214   0.000000
   44       11.123253   0.000000
   45       11.531575   0.000000
   46       11.654200   0.000000
   47       11.897986   0.000000
   48       12.175807   0.000000
   49       12.379023   0.000000
   50       12.427750   0.000000
   51       12.782379   0.000000
   52       13.276212   0.000000
 
  0.5000000E+00  0.1666667E+00  0.0000000E+00  0.9259259E-02
    1      -18.153060   1.000000
    2      -15.198259   1.000000
    3      -15.163640   1.000000
    4      -15.128669   1.000000
    5      -15.111876   1.000000
    6      -15.107783   1.000000
    7      -11.338578   1.000000
    8      -10.696885   1.000000
    9      -10.286940   1.000000
   10      -10.155147   1.000000
   11       -7.802236   1.000000
   12       -7.658654   1.000000
   13       -6.241529   1.000000
   14       -5.826422   1.000000
   15       -3.617440   1.000000
   16       -3.588400   1.000000
   17       -2.098924   1.000000
   18       -1.666915   1.000000
   19       -0.672328   1.000000
   20       -0.281826   1.000000
   21       -0.100716   1.000000
   22        0.051067   1.000000
   23        0.116989   1.000000
   24        0.383274   1.000000
   25        0.749605   1.000000
   26        3.533972   0.000000
   27        5.181961   0.000000
   28        5.540607   0.000000
   29        6.221056   0.000000
   30        6.313192   0.000000
   31        6.779805   0.000000
   32        7.069812   0.000000
   33        7.368821   0.000000
   34        7.539937   0.000000
   35        7.908765   0.000000
   36        8.351298   0.000000
   37        8.731920   0.000000
   38        9.387075   0.000000
   39        9.494240   0.000000
   40        9.652965   0.000000
   41        9.972462   0.000000
   42       10.261707   0.000000
   43       10.702748   0.000000
   44       11.118171   0.000000
   45       11.487355   0.000000
   46       11.534416   0.000000
   47       11.920653   0.000000
   48       11.942764   0.000000
   49       12.219297   0.000000
   50       12.523387   0.000000
   51       12.978718   0.000000
   52       13.224509   0.000000
 
 -0.3333333E+00  0.1666667E+00  0.0000000E+00  0.9259259E-02
    1      -18.153351   1.000000
    2      -15.198279   1.000000
    3      -15.166775   1.000000
    4      -15.128671   1.000000
    5      -15.111705   1.000000
    6      -15.107636   1.000000
    7      -11.322063   1.000000
    8      -10.760156   1.000000
    9      -10.288152   1.000000
   10      -10.103501   1.000000
   11       -7.803390   1.000000
   12       -7.660944   1.000000
   13       -6.135159   1.000000
   14       -5.820452   1.000000
   15       -3.602877   1.000000
   16       -3.569661   1.000000
   17       -2.134394   1.000000
   18       -1.718073   1.000000
   19       -0.887467   1.000000
   20       -0.248247   1.000000
   21       -0.122132   1.000000
   22        0.006640   1.000000
   23        0.158316   1.000000
   24        0.319952   1.000000
   25        0.457778   1.000000
   26        4.405898   0.000000
   27        5.203731   0.000000
   28        5.591214   0.000000
   29        6.101956   0.000000
   30        6.204970   0.000000
   31        6.619442   0.000000
   32        6.940391   0.000000
   33        7.347710   0.000000
   34        7.480446   0.000000
   35        8.032224   0.000000
   36        8.601529   0.000000
   37        8.745077   0.000000
   38        8.946040   0.000000
   39        9.377711   0.000000
   40        9.838980   0.000000
   41       10.115553   0.000000
   42       10.490226   0.000000
   43       10.646210   0.000000
   44       11.120910   0.000000
   45       11.530741   0.000000
   46       11.654108   0.000000
   47       11.899062   0.000000
   48       12.176732   0.000000
   49       12.379090   0.000000
   50       12.429227   0.000000
   51       12.782222   0.000000
   52       13.283185   0.000000
 
 -0.1666667E+00  0.1666667E+00  0.0000000E+00  0.9259259E-02
    1      -18.153946   1.000000
    2      -15.198330   1.000000
    3      -15.173005   1.000000
    4      -15.128672   1.000000
    5      -15.111373   1.000000
    6      -15.107339   1.000000
    7      -11.282506   1.000000
    8      -10.870199   1.000000
    9      -10.290385   1.000000
   10      -10.024732   1.000000
   11       -7.805594   1.000000
   12       -7.665501   1.000000
   13       -5.932627   1.000000
   14       -5.757511   1.000000
   15       -3.569540   1.000000
   16       -3.535709   1.000000
   17       -2.199635   1.000000
   18       -1.855895   1.000000
   19       -1.551998   1.000000
   20       -0.191714   1.000000
   21       -0.121875   1.000000
   22       -0.022784   1.000000
   23        0.111822   1.000000
   24        0.344985   1.000000
   25        0.410018   1.000000
   26        5.043491   0.000000
   27        5.532072   0.000000
   28        5.850856   0.000000
   29        6.135767   0.000000
   30        6.294882   0.000000
   31        6.388152   0.000000
   32        6.602066   0.000000
   33        7.238180   0.000000
   34        7.624933   0.000000
   35        8.156020   0.000000
   36        8.472005   0.000000
   37        8.614010   0.000000
   38        9.104596   0.000000
   39        9.457277   0.000000
   40        9.828743   0.000000
   41       10.078610   0.000000
   42       10.195944   0.000000
   43       10.780142   0.000000
   44       11.216847   0.000000
   45       11.605975   0.000000
   46       11.786755   0.000000
   47       11.905547   0.000000
   48       12.356227   0.000000
   49       12.518669   0.000000
   50       12.740137   0.000000
   51       12.964267   0.000000
   52       13.362447   0.000000
 
  0.0000000E+00  0.3333333E+00  0.0000000E+00  0.9259259E-02
    1      -18.153625   1.000000
    2      -15.194413   1.000000
    3      -15.173038   1.000000
    4      -15.129023   1.000000
    5      -15.111215   1.000000
    6      -15.107592   1.000000
    7      -11.247740   1.000000
    8      -10.837553   1.000000
    9      -10.394437   1.000000
   10      -10.023448   1.000000
   11       -7.760998   1.000000
   12       -7.672038   1.000000
   13       -5.978538   1.000000
   14       -5.840924   1.000000
   15       -3.574346   1.000000
   16       -3.522894   1.000000
   17       -2.157664   1.000000
   18       -1.990613   1.000000
   19       -0.971787   1.000000
   20       -0.330140   1.000000
   21       -0.187941   1.000000
   22        0.025575   1.000000
   23        0.124581   1.000000
   24        0.348892   1.000000
   25        0.414593   1.000000
   26        4.423828   0.000000
   27        5.498009   0.000000
   28        5.864249   0.000000
   29        6.331084   0.000000
   30        6.602078   0.000000
   31        6.810785   0.000000
   32        6.956929   0.000000
   33        7.177596   0.000000
   34        7.609174   0.000000
   35        8.153092   0.000000
   36        8.426363   0.000000
   37        8.690206   0.000000
   38        8.896842   0.000000
   39        8.979477   0.000000
   40        9.465417   0.000000
   41        9.636993   0.000000
   42       10.121507   0.000000
   43       10.350226   0.000000
   44       10.926104   0.000000
   45       11.469679   0.000000
   46       11.498708   0.000000
   47       11.798711   0.000000
   48       12.105531   0.000000
   49       12.331020   0.000000
   50       12.503574   0.000000
   51       13.121506   0.000000
   52       13.721878   0.000000
 
  0.1666667E+00  0.3333333E+00  0.0000000E+00  0.9259259E-02
    1      -18.153304   1.000000
    2      -15.194228   1.000000
    3      -15.170062   1.000000
    4      -15.129025   1.000000
    5      -15.111367   1.000000
    6      -15.107740   1.000000
    7      -11.263878   1.000000
    8      -10.798204   1.000000
    9      -10.388973   1.000000
   10      -10.049686   1.000000
   11       -7.763038   1.000000
   12       -7.670350   1.000000
   13       -6.124059   1.000000
   14       -5.850060   1.000000
   15       -3.571564   1.000000
   16       -3.534596   1.000000
   17       -2.142690   1.000000
   18       -1.604870   1.000000
   19       -0.939796   1.000000
   20       -0.390687   1.000000
   21       -0.226250   1.000000
   22        0.014186   1.000000
   23        0.173030   1.000000
   24        0.335384   1.000000
   25        0.454251   1.000000
   26        4.339007   0.000000
   27        5.486198   0.000000
   28        5.835686   0.000000
   29        6.202271   0.000000
   30        6.468954   0.000000
   31        6.486572   0.000000
   32        7.076825   0.000000
   33        7.213972   0.000000
   34        7.558894   0.000000
   35        8.051020   0.000000
   36        8.390585   0.000000
   37        8.674743   0.000000
   38        9.027921   0.000000
   39        9.289502   0.000000
   40        9.416958   0.000000
   41        9.803011   0.000000
   42        9.992593   0.000000
   43       10.444884   0.000000
   44       10.916606   0.000000
   45       11.253317   0.000000
   46       11.511330   0.000000
   47       11.743874   0.000000
   48       12.154220   0.000000
   49       12.397674   0.000000
   50       12.829622   0.000000
   51       13.009421   0.000000
   52       13.268625   0.000000
 
  0.3333333E+00  0.3333333E+00  0.0000000E+00  0.9259259E-02
    1      -18.152715   1.000000
    2      -15.193964   1.000000
    3      -15.163991   1.000000
    4      -15.129018   1.000000
    5      -15.111697   1.000000
    6      -15.108032   1.000000
    7      -11.292465   1.000000
    8      -10.711396   1.000000
    9      -10.378334   1.000000
   10      -10.114536   1.000000
   11       -7.766661   1.000000
   12       -7.666900   1.000000
   13       -6.390878   1.000000
   14       -5.841169   1.000000
   15       -3.584096   1.000000
   16       -3.544931   1.000000
   17       -2.083742   1.000000
   18       -1.017263   1.000000
   19       -0.805638   1.000000
   20       -0.453397   1.000000
   21       -0.196673   1.000000
   22       -0.041295   1.000000
   23        0.170726   1.000000
   24        0.446622   1.000000
   25        0.599205   1.000000
   26        4.083425   0.000000
   27        4.420437   0.000000
   28        5.830771   0.000000
   29        6.057995   0.000000
   30        6.371933   0.000000
   31        6.863954   0.000000
   32        7.144154   0.000000
   33        7.292983   0.000000
   34        7.508200   0.000000
   35        8.150591   0.000000
   36        8.453641   0.000000
   37        8.717436   0.000000
   38        8.950033   0.000000
   39        9.163296   0.000000
   40        9.750621   0.000000
   41        9.938898   0.000000
   42       10.315372   0.000000
   43       10.407602   0.000000
   44       10.915805   0.000000
   45       11.138331   0.000000
   46       11.245699   0.000000
   47       11.723437   0.000000
   48       11.830053   0.000000
   49       12.027742   0.000000
   50       12.717945   0.000000
   51       13.088046   0.000000
   52       13.408324   0.000000
 
  0.5000000E+00  0.3333333E+00  0.0000000E+00  0.9259259E-02
    1      -18.152441   1.000000
    2      -15.193869   1.000000
    3      -15.160903   1.000000
    4      -15.129018   1.000000
    5      -15.111866   1.000000
    6      -15.108178   1.000000
    7      -11.305410   1.000000
    8      -10.659960   1.000000
    9      -10.373154   1.000000
   10      -10.156653   1.000000
   11       -7.768182   1.000000
   12       -7.665130   1.000000
   13       -6.508263   1.000000
   14       -5.834765   1.000000
   15       -3.595241   1.000000
   16       -3.546235   1.000000
   17       -2.050761   1.000000
   18       -0.910741   1.000000
   19       -0.765897   1.000000
   20       -0.353624   1.000000
   21       -0.198745   1.000000
   22       -0.027778   1.000000
   23        0.106626   1.000000
   24        0.631236   1.000000
   25        0.886739   1.000000
   26        3.349742   0.000000
   27        4.166798   0.000000
   28        5.818735   0.000000
   29        6.065392   0.000000
   30        6.447261   0.000000
   31        7.041531   0.000000
   32        7.102683   0.000000
   33        7.394121   0.000000
   34        7.884493   0.000000
   35        8.116830   0.000000
   36        8.207333   0.000000
   37        8.590827   0.000000
   38        9.004770   0.000000
   39        9.147315   0.000000
   40        9.752770   0.000000
   41        9.975278   0.000000
   42       10.416870   0.000000
   43       10.546310   0.000000
   44       10.675142   0.000000
   45       11.173842   0.000000
   46       11.230149   0.000000
   47       11.858294   0.000000
   48       12.063956   0.000000
   49       12.092442   0.000000
   50       12.324735   0.000000
   51       12.587480   0.000000
   52       13.307072   0.000000
 
 -0.3333333E+00  0.3333333E+00  0.0000000E+00  0.9259259E-02
    1      -18.152715   1.000000
    2      -15.193964   1.000000
    3      -15.163991   1.000000
    4      -15.129018   1.000000
    5      -15.111697   1.000000
    6      -15.108032   1.000000
    7      -11.292497   1.000000
    8      -10.711346   1.000000
    9      -10.378363   1.000000
   10      -10.114516   1.000000
   11       -7.766654   1.000000
   12       -7.666864   1.000000
   13       -6.390895   1.000000
   14       -5.841223   1.000000
   15       -3.583988   1.000000
   16       -3.545191   1.000000
   17       -2.083817   1.000000
   18       -1.016620   1.000000
   19       -0.806015   1.000000
   20       -0.453481   1.000000
   21       -0.196530   1.000000
   22       -0.040807   1.000000
   23        0.170671   1.000000
   24        0.446757   1.000000
   25        0.598683   1.000000
   26        4.085103   0.000000
   27        4.418572   0.000000
   28        5.830748   0.000000
   29        6.058183   0.000000
   30        6.372052   0.000000
   31        6.864783   0.000000
   32        7.143449   0.000000
   33        7.291438   0.000000
   34        7.507881   0.000000
   35        8.150551   0.000000
   36        8.452839   0.000000
   37        8.717913   0.000000
   38        8.949890   0.000000
   39        9.163258   0.000000
   40        9.749845   0.000000
   41        9.941474   0.000000
   42       10.315739   0.000000
   43       10.408079   0.000000
   44       10.914871   0.000000
   45       11.138371   0.000000
   46       11.245646   0.000000
   47       11.722349   0.000000
   48       11.831974   0.000000
   49       12.029202   0.000000
   50       12.717164   0.000000
   51       13.103183   0.000000
   52       13.406857   0.000000
 
 -0.1666667E+00  0.3333333E+00  0.0000000E+00  0.9259259E-02
    1      -18.153304   1.000000
    2      -15.194228   1.000000
    3      -15.170062   1.000000
    4      -15.129025   1.000000
    5      -15.111367   1.000000
    6      -15.107740   1.000000
    7      -11.263918   1.000000
    8      -10.798149   1.000000
    9      -10.389000   1.000000
   10      -10.049666   1.000000
   11       -7.763038   1.000000
   12       -7.670309   1.000000
   13       -6.124071   1.000000
   14       -5.850122   1.000000
   15       -3.571551   1.000000
   16       -3.534757   1.000000
   17       -2.142768   1.000000
   18       -1.604602   1.000000
   19       -0.939873   1.000000
   20       -0.390572   1.000000
   21       -0.226414   1.000000
   22        0.014827   1.000000
   23        0.172944   1.000000
   24        0.335361   1.000000
   25        0.454034   1.000000
   26        4.339273   0.000000
   27        5.485462   0.000000
   28        5.835704   0.000000
   29        6.202315   0.000000
   30        6.470093   0.000000
   31        6.485846   0.000000
   32        7.075221   0.000000
   33        7.215010   0.000000
   34        7.558539   0.000000
   35        8.049711   0.000000
   36        8.390093   0.000000
   37        8.675307   0.000000
   38        9.030080   0.000000
   39        9.287250   0.000000
   40        9.416914   0.000000
   41        9.803021   0.000000
   42        9.993503   0.000000
   43       10.445852   0.000000
   44       10.918053   0.000000
   45       11.251859   0.000000
   46       11.512406   0.000000
   47       11.742604   0.000000
   48       12.156326   0.000000
   49       12.396868   0.000000
   50       12.829261   0.000000
   51       13.011314   0.000000
   52       13.271261   0.000000
 
  0.0000000E+00  0.5000000E+00  0.0000000E+00  0.4629630E-02
    1      -18.153335   1.000000
    2      -15.192861   1.000000
    3      -15.171071   1.000000
    4      -15.129221   1.000000
    5      -15.111221   1.000000
    6      -15.107815   1.000000
    7      -11.243221   1.000000
    8      -10.770388   1.000000
    9      -10.471448   1.000000
   10      -10.036791   1.000000
   11       -7.737230   1.000000
   12       -7.676734   1.000000
   13       -6.061883   1.000000
   14       -5.879838   1.000000
   15       -3.583932   1.000000
   16       -3.525700   1.000000
   17       -2.124165   1.000000
   18       -1.937303   1.000000
   19       -0.677776   1.000000
   20       -0.390142   1.000000
   21       -0.229042   1.000000
   22        0.102641   1.000000
   23        0.145340   1.000000
   24        0.384597   1.000000
   25        0.523578   1.000000
   26        3.624362   0.000000
   27        5.854549   0.000000
   28        6.015506   0.000000
   29        6.242949   0.000000
   30        6.683721   0.000000
   31        6.740615   0.000000
   32        7.284569   0.000000
   33        7.403102   0.000000
   34        7.872070   0.000000
   35        7.933189   0.000000
   36        8.176269   0.000000
   37        8.449322   0.000000
   38        8.690510   0.000000