       N       E                     dE             d eps       ncg     rms          rms(c)
DAV:   1     0.329411535697E+03    0.32941E+03   -0.18641E+04 53568   0.798E+02
DAV:   2    -0.137026969356E+02   -0.34311E+03   -0.31637E+03 59416   0.203E+02
DAV:   3    -0.531078071408E+02   -0.39405E+02   -0.38828E+02 69228   0.779E+01
DAV:   4    -0.547884338858E+02   -0.16806E+01   -0.16778E+01 72208   0.184E+01
DAV:   5    -0.548322107053E+02   -0.43777E-01   -0.43771E-01 73636   0.279E+00
DAV:   6    -0.548337740000E+02   -0.15633E-02   -0.15633E-02 73956   0.491E-01
DAV:   7    -0.548338149693E+02   -0.40969E-04   -0.40969E-04 75836   0.646E-02
DAV:   8    -0.548338154049E+02   -0.43558E-06   -0.43555E-06 62328   0.764E-03
   1 F= -.54833815E+02 E0= -.54833815E+02  d E =-.593208E-35
