Name                                    
   5.43100000000000     
     0.500000    0.500000    0.000000
     0.500000    0.000000   -0.500000
     0.000000    0.500000   -0.500000
   Si
     2
Direct
  0.000000  0.000000  0.000000
  0.250000  0.250000  0.250000
 
   56   56   56
 -.81160269583E+01 -.75344269055E+01 -.58522003406E+01 -.32488752858E+01 0.30861674093E-02
 0.35757254239E+01 0.71309580542E+01 0.10365518940E+02 0.13046625772E+02 0.15032279491E+02
 0.16274876261E+02 0.16811088193E+02 0.16743011731E+02 0.16215316341E+02 0.15391739535E+02
 0.14430234272E+02 0.13425295489E+02 0.12422717183E+02 0.11459694642E+02 0.10564415539E+02
 0.97554724038E+01 0.90426236735E+01 0.84287878177E+01 0.79127589887E+01 0.74919159283E+01
 0.71642286515E+01 0.69291443260E+01 0.67873646727E+01 0.67399448099E+01 0.67873646727E+01
 0.69291443260E+01 0.71642286515E+01 0.74919159283E+01 0.79127589887E+01 0.84287878177E+01
 0.90426236735E+01 0.97554724038E+01 0.10564415539E+02 0.11459694642E+02 0.12422717183E+02
 0.13425295489E+02 0.14430234272E+02 0.15391739535E+02 0.16215316341E+02 0.16743011731E+02
 0.16811088193E+02 0.16274876261E+02 0.15032279491E+02 0.13046625772E+02 0.10365518940E+02
 0.71309580542E+01 0.35757254239E+01 0.30861674093E-02 -.32488752858E+01 -.58522003406E+01
 -.75344269055E+01 -.75344269055E+01 -.63456445222E+01 -.40998914781E+01 -.10419581801E+01
 0.25057818509E+01 0.61899997823E+01 0.96757884559E+01 0.12689012785E+02 0.15043852777E+02
 0.16652447184E+02 0.17518605615E+02 0.17720672405E+02 0.17389036700E+02 0.16682396542E+02
 0.15765189276E+02 0.14768994132E+02 0.13752173765E+02 0.12755122012E+02 0.11810359481E+02
 0.10941412614E+02 0.10162787670E+02 0.94812527318E+01 0.88981755988E+01 0.84122891213E+01
 0.80221091746E+01 0.77273709948E+01 0.75292367886E+01 0.74295157248E+01 0.74295157248E+01
 0.75292367886E+01 0.77273709948E+01 0.80221091746E+01 0.84122891213E+01 0.88981755988E+01
 0.94812527318E+01 0.10162787670E+02 0.10941412614E+02 0.11810359481E+02 0.12755122012E+02
 0.13752173765E+02 0.14768994132E+02 0.15765189276E+02 0.16682396542E+02 0.17389036700E+02
 0.17720672405E+02 0.17518605615E+02 0.16652447184E+02 0.15043852777E+02 0.12689012785E+02
 0.96757884559E+01 0.61899997823E+01 0.25057818509E+01 -.10419581801E+01 -.40998914781E+01
 -.63456445222E+01 -.75344269055E+01 -.58522003406E+01 -.40998914781E+01 -.14020429638E+01
 0.19432371400E+01 0.55844472926E+01 0.91685220449E+01 0.12388745286E+02 0.15019490332E+02
 0.16932760592E+02 0.18096981926E+02 0.18562649730E+02 0.18440815707E+02 0.17879381307E+02
 0.17040235142E+02 0.16074287319E+02 0.15064799488E+02 0.14054356925E+02 0.13078362348E+02
 0.12164251138E+02 0.11330863735E+02 0.10588978575E+02 0.99430674105E+01 0.93938545854E+01
 0.89409395491E+01 0.85847059123E+01 0.83270172180E+01 0.81706916908E+01 0.81182482938E+01
 0.81706916908E+01 0.83270172180E+01 0.85847059123E+01 0.89409395491E+01 0.93938545854E+01
 0.99430674105E+01 0.10588978575E+02 0.11330863735E+02 0.12164251138E+02 0.13078362348E+02
 0.14054356925E+02 0.15064799488E+02 0.16074287319E+02 0.17040235142E+02 0.17879381307E+02
 0.18440815707E+02 0.18562649730E+02 0.18096981926E+02 0.16932760592E+02 0.15019490332E+02
 0.12388745286E+02 0.91685220449E+01 0.55844472926E+01 0.19432371400E+01 -.14020429638E+01
 -.40998914781E+01 -.58522003406E+01 -.64596405986E+01 -.32488752858E+01 -.10419581801E+01
 0.19432371400E+01 0.53756742983E+01 0.89005218418E+01 0.12190722589E+02 0.14988130235E+02
 0.17127304915E+02 0.18540514636E+02 0.19247451657E+02 0.19335643381E+02 0.18937252253E+02
 0.18206097667E+02 0.17296424423E+02 0.16317524966E+02 0.15316943302E+02 0.14331540623E+02
 0.13391383084E+02 0.12518808671E+02 0.11728327674E+02 0.11027715871E+02 0.10420160587E+02
 0.99068622735E+01 0.94892725425E+01 0.91702657545E+01 0.89539663678E+01 0.88445171302E+01
 0.88445171302E+01 0.89539663678E+01 0.91702657545E+01 0.94892725425E+01 0.99068622735E+01
 0.10420160587E+02 0.11027715871E+02 0.11728327674E+02 0.12518808671E+02 0.13391383084E+02
 0.14331540623E+02 0.15316943302E+02 0.16317524966E+02 0.17296424423E+02 0.18206097667E+02
 0.18937252253E+02 0.19335643381E+02 0.19247451657E+02 0.18540514636E+02 0.17127304915E+02
 0.14988130235E+02 0.12190722589E+02 0.89005218418E+01 0.53756742983E+01 0.19432371400E+01
 -.10419581801E+01 -.32488752858E+01 -.44218902555E+01 -.44218902555E+01 0.30861674093E-02
 0.25057818509E+01 0.55844472926E+01 0.89005218418E+01 0.12121769456E+02 0.14968143113E+02
 0.17242438244E+02 0.18842219372E+02 0.19754881884E+02 0.20041207063E+02 0.19813456093E+02
 0.19212630339E+02 0.18387497078E+02 0.17463511263E+02 0.16497817057E+02 0.15527533038E+02
 0.14584043594E+02 0.13692075072E+02 0.12869191469E+02 0.12126281182E+02 0.11469182216E+02
 0.10901070494E+02 0.10424853680E+02 0.10044745320E+02 0.97664922709E+01 0.95962839575E+01
 0.95389403482E+01 0.95962839575E+01 0.97664922709E+01 0.10044745320E+02 0.10424853680E+02
 0.10901070494E+02 0.11469182216E+02 0.12126281182E+02 0.12869191469E+02 0.13692075072E+02
 0.14584043594E+02 0.15527533038E+02 0.16497817057E+02 0.17463511263E+02 0.18387497078E+02
 0.19212630339E+02 0.19813456093E+02 0.20041207063E+02 0.19754881884E+02 0.18842219372E+02
 0.17242438244E+02 0.14968143113E+02 0.12121769456E+02 0.89005218418E+01 0.55844472926E+01
 0.25057818509E+01 0.30861674093E-02 -.16312951432E+01 -.21994158408E+01 -.16312951432E+01
 0.35757254239E+01 0.61899997823E+01 0.91685220449E+01 0.12190722589E+02 0.14968143113E+02
 0.17280638889E+02 0.18995233297E+02 0.20067484758E+02 0.20529475307E+02 0.20470271530E+02
 0.20014043827E+02 0.19299178594E+02 0.18454825509E+02 0.17549758089E+02 0.16620682469E+02
 0.15699125317E+02 0.14810996254E+02 0.13975943676E+02 0.13207396744E+02 0.12513676360E+02
 0.11900051894E+02 0.11371131514E+02 0.10932731000E+02 0.10592499762E+02 0.10359064748E+02
 0.10240083532E+02 0.10240083532E+02 0.10359064748E+02 0.10592499762E+02 0.10932731000E+02
 0.11371131514E+02 0.11900051894E+02 0.12513676360E+02 0.13207396744E+02 0.13975943676E+02
 0.14810996254E+02 0.15699125317E+02 0.16620682469E+02 0.17549758089E+02 0.18454825509E+02
 0.19299178594E+02 0.20014043827E+02 0.20470271530E+02 0.20529475307E+02 0.20067484758E+02
 0.18995233297E+02 0.17280638889E+02 0.14968143113E+02 0.12190722589E+02 0.91685220449E+01
 0.61899997823E+01 0.35757254239E+01 0.16303148483E+01 0.59218740385E+00 0.59218740385E+00
 0.16303148483E+01 0.71309580542E+01 0.96757884559E+01 0.12388745286E+02 0.14988130235E+02
 0.17242438244E+02 0.18995233297E+02 0.20173140891E+02 0.20779329986E+02 0.20877528817E+02
 0.20571888003E+02 0.19986653097E+02 0.19245925725E+02 0.18426561531E+02 0.17564925603E+02
 0.16691728172E+02 0.15832913158E+02 0.15009096824E+02 0.14235374923E+02 0.13522021423E+02
 0.12876186434E+02 0.12304173729E+02 0.11813495903E+02 0.11413865073E+02 0.11116635363E+02
 0.10932839743E+02 0.10870580054E+02 0.10932839743E+02 0.11116635363E+02 0.11413865073E+02
 0.11813495903E+02 0.12304173729E+02 0.12876186434E+02 0.13522021423E+02 0.14235374923E+02
 0.15009096824E+02 0.15832913158E+02 0.16691728172E+02 0.17564925603E+02 0.18426561531E+02
 0.19245925725E+02 0.19986653097E+02 0.20571888003E+02 0.20877528817E+02 0.20779329986E+02
 0.20173140891E+02 0.18995233297E+02 0.17242438244E+02 0.14988130235E+02 0.12388745286E+02
 0.96757884559E+01 0.71309580542E+01 0.50466130953E+01 0.36786529974E+01 0.32019593476E+01
 0.36786529974E+01 0.50466130953E+01 0.10365518940E+02 0.12689012785E+02 0.15019490332E+02
 0.17127304915E+02 0.18842219372E+02 0.20067484758E+02 0.20779329986E+02 0.21015563592E+02
 0.20858196803E+02 0.20414374995E+02 0.19797652588E+02 0.19086703491E+02 0.18317201230E+02
 0.17518285752E+02 0.16714935694E+02 0.15927612393E+02 0.15172024920E+02 0.14459569715E+02
 0.13798722201E+02 0.13197159077E+02 0.12663920601E+02 0.12210724264E+02 0.11851748288E+02
 0.11601767324E+02 0.11473210881E+02 0.11473210881E+02 0.11601767324E+02 0.11851748288E+02
 0.12210724264E+02 0.12663920601E+02 0.13197159077E+02 0.13798722201E+02 0.14459569715E+02
 0.15172024920E+02 0.15927612393E+02 0.16714935694E+02 0.17518285752E+02 0.18317201230E+02
 0.19086703491E+02 0.19797652588E+02 0.20414374995E+02 0.20858196803E+02 0.21015563592E+02
 0.20779329986E+02 0.20067484758E+02 0.18842219372E+02 0.17127304915E+02 0.15019490332E+02
 0.12689012785E+02 0.10365518940E+02 0.83089914855E+01 0.67697537732E+01 0.59455624734E+01
 0.59455624734E+01 0.67697537732E+01 0.83089914855E+01 0.13046625772E+02 0.15043852777E+02
 0.16932760592E+02 0.18540514636E+02 0.19754881884E+02 0.20529475307E+02 0.20877528817E+02
 0.20858196803E+02 0.20559566480E+02 0.20081172723E+02 0.19497091385E+02 0.18841049782E+02
 0.18139998549E+02 0.17417129446E+02 0.16691728172E+02 0.15979022591E+02 0.15290514901E+02
 0.14635165586E+02 0.14021377861E+02 0.13459231112E+02 0.12962089495E+02 0.12546762576E+02
 0.12231853503E+02 0.12034631298E+02 0.11967401938E+02 0.12034631298E+02 0.12231853503E+02
 0.12546762576E+02 0.12962089495E+02 0.13459231112E+02 0.14021377861E+02 0.14635165586E+02
 0.15290514901E+02 0.15979022591E+02 0.16691728172E+02 0.17417129446E+02 0.18139998549E+02
 0.18841049782E+02 0.19497091385E+02 0.20081172723E+02 0.20559566480E+02 0.20858196803E+02
 0.20877528817E+02 0.20529475307E+02 0.19754881884E+02 0.18540514636E+02 0.16932760592E+02
 0.15043852777E+02 0.13046625772E+02 0.11155764509E+02 0.95970205949E+01 0.85697751654E+01
 0.82110841522E+01 0.85697751654E+01 0.95970205949E+01 0.11155764509E+02 0.15032279491E+02
 0.16652447184E+02 0.18096981926E+02 0.19247451657E+02 0.20041207063E+02 0.20470271530E+02
 0.20571888003E+02 0.20414374995E+02 0.20081172723E+02 0.19636351809E+02 0.19109958248E+02
 0.18526196797E+02 0.17905813424E+02 0.17266063780E+02 0.16620682469E+02 0.15980215819E+02
 0.15353101156E+02 0.14747564557E+02 0.14173926556E+02 0.13646499814E+02 0.13184168837E+02
 0.12809068592E+02 0.12543359815E+02 0.12405262997E+02 0.12405262997E+02 0.12543359815E+02
 0.12809068592E+02 0.13184168837E+02 0.13646499814E+02 0.14173926556E+02 0.14747564557E+02
 0.15353101156E+02 0.15980215819E+02 0.16620682469E+02 0.17266063780E+02 0.17905813424E+02
 0.18526196797E+02 0.19109958248E+02 0.19636351809E+02 0.20081172723E+02 0.20414374995E+02
 0.20571888003E+02 0.20470271530E+02 0.20041207063E+02 0.19247451657E+02 0.18096981926E+02
 0.16652447184E+02 0.15032279491E+02 0.13400735064E+02 0.11946531854E+02 0.10853034072E+02
 0.10265943577E+02 0.10265943577E+02 0.10853034072E+02 0.11946531854E+02 0.13400735064E+02
 0.16274876261E+02 0.17518605615E+02 0.18562649730E+02 0.19335643381E+02 0.19813456093E+02
 0.20014043827E+02 0.19986653097E+02 0.19797652588E+02 0.19497091385E+02 0.19109958248E+02
 0.18657192338E+02 0.18156573339E+02 0.17622666017E+02 0.17066873595E+02 0.16497817057E+02
 0.15922383396E+02 0.15347588633E+02 0.14782972043E+02 0.14242790455E+02 0.13746978312E+02
 0.13319501917E+02 0.12987073614E+02 0.12775238166E+02 0.12702393951E+02 0.12775238166E+02
 0.12987073614E+02 0.13319501917E+02 0.13746978312E+02 0.14242790455E+02 0.14782972043E+02
 0.15347588633E+02 0.15922383396E+02 0.16497817057E+02 0.17066873595E+02 0.17622666017E+02
 0.18156573339E+02 0.18657192338E+02 0.19109958248E+02 0.19497091385E+02 0.19797652588E+02
 0.19986653097E+02 0.20014043827E+02 0.19813456093E+02 0.19335643381E+02 0.18562649730E+02
 0.17518605615E+02 0.16274876261E+02 0.14946785633E+02 0.13680577438E+02 0.12631722971E+02
 0.11938404919E+02 0.11695958311E+02 0.11938404919E+02 0.12631722971E+02 0.13680577438E+02
 0.14946785633E+02 0.16811088193E+02 0.17720672405E+02 0.18440815707E+02 0.18937252253E+02
 0.19212630339E+02 0.19299178594E+02 0.19245925725E+02 0.19086703491E+02 0.18841049782E+02
 0.18526196797E+02 0.18156573339E+02 0.17743595075E+02 0.17295724730E+02 0.16818888917E+02
 0.16317524966E+02 0.15796436438E+02 0.15263280849E+02 0.14731041158E+02 0.14218121293E+02
 0.13748819787E+02 0.13354544440E+02 0.13068254171E+02 0.12917341704E+02 0.12917341704E+02
 0.13068254171E+02 0.13354544440E+02 0.13748819787E+02 0.14218121293E+02 0.14731041158E+02
 0.15263280849E+02 0.15796436438E+02 0.16317524966E+02 0.16818888917E+02 0.17295724730E+02
 0.17743595075E+02 0.18156573339E+02 0.18526196797E+02 0.18841049782E+02 0.19086703491E+02
 0.19245925725E+02 0.19299178594E+02 0.19212630339E+02 0.18937252253E+02 0.18440815707E+02
 0.17720672405E+02 0.16811088193E+02 0.15784569049E+02 0.14745436565E+02 0.13815574108E+02
 0.13114441092E+02 0.12737406450E+02 0.12737406450E+02 0.13114441092E+02 0.13815574108E+02
 0.14745436565E+02 0.15784569049E+02 0.16743011731E+02 0.17389036700E+02 0.17879381307E+02
 0.18206097667E+02 0.18387497078E+02 0.18454825509E+02 0.18426561531E+02 0.18317201230E+02
 0.18139998549E+02 0.17905813424E+02 0.17622666017E+02 0.17295724730E+02 0.16927720576E+02
 0.16519984143E+02 0.16074287319E+02 0.15595400345E+02 0.15093492514E+02 0.14582979036E+02
 0.14087541610E+02 0.13641632055E+02 0.13284660460E+02 0.13053145680E+02 0.12972874384E+02
 0.13053145680E+02 0.13284660460E+02 0.13641632055E+02 0.14087541610E+02 0.14582979036E+02
 0.15093492514E+02 0.15595400345E+02 0.16074287319E+02 0.16519984143E+02 0.16927720576E+02
 0.17295724730E+02 0.17622666017E+02 0.17905813424E+02 0.18139998549E+02 0.18317201230E+02
 0.18426561531E+02 0.18454825509E+02 0.18387497078E+02 0.18206097667E+02 0.17879381307E+02
 0.17389036700E+02 0.16743011731E+02 0.15979683346E+02 0.15166255887E+02 0.14390646790E+02
 0.13747723848E+02 0.13322453709E+02 0.13173685121E+02 0.13322453709E+02 0.13747723848E+02
 0.14390646790E+02 0.15166255887E+02 0.15979683346E+02 0.16215316341E+02 0.16682396542E+02
 0.17040235142E+02 0.17296424423E+02 0.17463511263E+02 0.17549758089E+02 0.17564925603E+02
 0.17518285752E+02 0.17417129446E+02 0.17266063780E+02 0.17066873595E+02 0.16818888917E+02
 0.16519984143E+02 0.16168374788E+02 0.15765189276E+02 0.15316485364E+02 0.14831389168E+02
 0.14330861426E+02 0.13849961406E+02 0.13432561742E+02 0.13123271331E+02 0.12958434505E+02
 0.12958434505E+02 0.13123271331E+02 0.13432561742E+02 0.13849961406E+02 0.14330861426E+02
 0.14831389168E+02 0.15316485364E+02 0.15765189276E+02 0.16168374788E+02 0.16519984143E+02
 0.16818888917E+02 0.17066873595E+02 0.17266063780E+02 0.17417129446E+02 0.17518285752E+02
 0.17564925603E+02 0.17549758089E+02 0.17463511263E+02 0.17296424423E+02 0.17040235142E+02
 0.16682396542E+02 0.16215316341E+02 0.15652854901E+02 0.15032377993E+02 0.14411314418E+02
 0.13858718090E+02 0.13443250770E+02 0.13220136090E+02 0.13220136090E+02 0.13443250770E+02
 0.13858718090E+02 0.14411314418E+02 0.15032377993E+02 0.15652854901E+02 0.15391739535E+02
 0.15765189276E+02 0.16074287319E+02 0.16317524966E+02 0.16497817057E+02 0.16620682469E+02
 0.16691728172E+02 0.16714935694E+02 0.16691728172E+02 0.16620682469E+02 0.16497817057E+02
 0.16317524966E+02 0.16074287319E+02 0.15765189276E+02 0.15391739535E+02 0.14957078160E+02
 0.14477021583E+02 0.13984322800E+02 0.13524446351E+02 0.13147852075E+02 0.12900399182E+02
 0.12814089641E+02 0.12900399182E+02 0.13147852075E+02 0.13524446351E+02 0.13984322800E+02
 0.14477021583E+02 0.14957078160E+02 0.15391739535E+02 0.15765189276E+02 0.16074287319E+02
 0.16317524966E+02 0.16497817057E+02 0.16620682469E+02 0.16691728172E+02 0.16714935694E+02
 0.16691728172E+02 0.16620682469E+02 0.16497817057E+02 0.16317524966E+02 0.16074287319E+02
 0.15765189276E+02 0.15391739535E+02 0.14957078160E+02 0.14477021583E+02 0.13984322800E+02
 0.13524446351E+02 0.13147852075E+02 0.12900399182E+02 0.12814089641E+02 0.12900399182E+02
 0.13147852075E+02 0.13524446351E+02 0.13984322800E+02 0.14477021583E+02 0.14957078160E+02
 0.14430234272E+02 0.14768994132E+02 0.15064799488E+02 0.15316943302E+02 0.15527533038E+02
 0.15699125317E+02 0.15832913158E+02 0.15927612393E+02 0.15979022591E+02 0.15980215819E+02
 0.15922383396E+02 0.15796436438E+02 0.15595400345E+02 0.15316485364E+02 0.14957078160E+02
 0.14525728776E+02 0.14049885306E+02 0.13573180720E+02 0.13148668753E+02 0.12829309817E+02
 0.12657749890E+02 0.12657749890E+02 0.12829309817E+02 0.13148668753E+02 0.13573180720E+02
 0.14049885306E+02 0.14525728776E+02 0.14957078160E+02 0.15316485364E+02 0.15595400345E+02
 0.15796436438E+02 0.15922383396E+02 0.15980215819E+02 0.15979022591E+02 0.15927612393E+02
 0.15832913158E+02 0.15699125317E+02 0.15527533038E+02 0.15316943302E+02 0.15064799488E+02
 0.14768994132E+02 0.14430234272E+02 0.14054535551E+02 0.13654657408E+02 0.13248274921E+02
 0.12861668021E+02 0.12528235250E+02 0.12282137228E+02 0.12151263078E+02 0.12151263078E+02
 0.12282137228E+02 0.12528235250E+02 0.12861668021E+02 0.13248274921E+02 0.13654657408E+02
 0.14054535551E+02 0.13425295489E+02 0.13752173765E+02 0.14054356925E+02 0.14331540623E+02
 0.14584043594E+02 0.14810996254E+02 0.15009096824E+02 0.15172024920E+02 0.15290514901E+02
 0.15353101156E+02 0.15347588633E+02 0.15263280849E+02 0.15093492514E+02 0.14831389168E+02
 0.14477021583E+02 0.14049885306E+02 0.13588264004E+02 0.13143920711E+02 0.12773359426E+02
 0.12527377400E+02 0.12441187642E+02 0.12527377400E+02 0.12773359426E+02 0.13143920711E+02
 0.13588264004E+02 0.14049885306E+02 0.14477021583E+02 0.14831389168E+02 0.15093492514E+02
 0.15263280849E+02 0.15347588633E+02 0.15353101156E+02 0.15290514901E+02 0.15172024920E+02
 0.15009096824E+02 0.14810996254E+02 0.14584043594E+02 0.14331540623E+02 0.14054356925E+02
 0.13752173765E+02 0.13425295489E+02 0.13076753505E+02 0.12714219655E+02 0.12351130927E+02
 0.12006505505E+02 0.11702986252E+02 0.11463762758E+02 0.11310104484E+02 0.11257073183E+02
 0.11310104484E+02 0.11463762758E+02 0.11702986252E+02 0.12006505505E+02 0.12351130927E+02
 0.12714219655E+02 0.13076753505E+02 0.12422717183E+02 0.12755122012E+02 0.13078362348E+02
 0.13391383084E+02 0.13692075072E+02 0.13975943676E+02 0.14235374923E+02 0.14459569715E+02
 0.14635165586E+02 0.14747564557E+02 0.14782972043E+02 0.14731041158E+02 0.14582979036E+02
 0.14330861426E+02 0.13984322800E+02 0.13573180720E+02 0.13143920711E+02 0.12752338909E+02
 0.12453640013E+02 0.12292019117E+02 0.12292019117E+02 0.12453640013E+02 0.12752338909E+02
 0.13143920711E+02 0.13573180720E+02 0.13984322800E+02 0.14330861426E+02 0.14582979036E+02
 0.14731041158E+02 0.14782972043E+02 0.14747564557E+02 0.14635165586E+02 0.14459569715E+02
 0.14235374923E+02 0.13975943676E+02 0.13692075072E+02 0.13391383084E+02 0.13078362348E+02
 0.12755122012E+02 0.12422717183E+02 0.12082883971E+02 0.11739823725E+02 0.11401565198E+02
 0.11080444233E+02 0.10792417709E+02 0.10555234555E+02 0.10385818648E+02 0.10297457344E+02
 0.10297457344E+02 0.10385818648E+02 0.10555234555E+02 0.10792417709E+02 0.11080444233E+02
 0.11401565198E+02 0.11739823725E+02 0.12082883971E+02 0.11459694642E+02 0.11810359481E+02
 0.12164251138E+02 0.12518808671E+02 0.12869191469E+02 0.13207396744E+02 0.13522021423E+02
 0.13798722201E+02 0.14021377861E+02 0.14173926556E+02 0.14242790455E+02 0.14218121293E+02
 0.14087541610E+02 0.13849961406E+02 0.13524446351E+02 0.13148668753E+02 0.12773359426E+02
 0.12453640013E+02 0.12238884080E+02 0.12163235186E+02 0.12238884080E+02 0.12453640013E+02
 0.12773359426E+02 0.13148668753E+02 0.13524446351E+02 0.13849961406E+02 0.14087541610E+02
 0.14218121293E+02 0.14242790455E+02 0.14173926556E+02 0.14021377861E+02 0.13798722201E+02
 0.13522021423E+02 0.13207396744E+02 0.12869191469E+02 0.12518808671E+02 0.12164251138E+02
 0.11810359481E+02 0.11459694642E+02 0.11113916481E+02 0.10775383553E+02 0.10448592305E+02
 0.10141052072E+02 0.98632967310E+01 0.96279516619E+01 0.94480368116E+01 0.93349005446E+01
 0.92962745255E+01 0.93349005446E+01 0.94480368116E+01 0.96279516619E+01 0.98632967310E+01
 0.10141052072E+02 0.10448592305E+02 0.10775383553E+02 0.11113916481E+02 0.10564415539E+02
 0.10941412614E+02 0.11330863735E+02 0.11728327674E+02 0.12126281182E+02 0.12513676360E+02
 0.12876186434E+02 0.13197159077E+02 0.13459231112E+02 0.13646499814E+02 0.13746978312E+02
 0.13748819787E+02 0.13641632055E+02 0.13432561742E+02 0.13147852075E+02 0.12829309817E+02
 0.12527377400E+02 0.12292019117E+02 0.12163235186E+02 0.12163235186E+02 0.12292019117E+02
 0.12527377400E+02 0.12829309817E+02 0.13147852075E+02 0.13432561742E+02 0.13641632055E+02
 0.13748819787E+02 0.13746978312E+02 0.13646499814E+02 0.13459231112E+02 0.13197159077E+02
 0.12876186434E+02 0.12513676360E+02 0.12126281182E+02 0.11728327674E+02 0.11330863735E+02
 0.10941412614E+02 0.10564415539E+02 0.10202252243E+02 0.98566170809E+01 0.95299295889E+01
 0.92264208692E+01 0.89525977612E+01 0.87169446494E+01 0.85289314803E+01 0.83975833383E+01
 0.83299697549E+01 0.83299697549E+01 0.83975833383E+01 0.85289314803E+01 0.87169446494E+01
 0.89525977612E+01 0.92264208692E+01 0.95299295889E+01 0.98566170809E+01 0.10202252243E+02
 0.97554724038E+01 0.10162787670E+02 0.10588978575E+02 0.11027715871E+02 0.11469182216E+02
 0.11900051894E+02 0.12304173729E+02 0.12663920601E+02 0.12962089495E+02 0.13184168837E+02
 0.13319501917E+02 0.13354544440E+02 0.13284660460E+02 0.13123271331E+02 0.12900399182E+02
 0.12657749890E+02 0.12441187642E+02 0.12292019117E+02 0.12238884080E+02 0.12292019117E+02
 0.12441187642E+02 0.12657749890E+02 0.12900399182E+02 0.13123271331E+02 0.13284660460E+02
 0.13354544440E+02 0.13319501917E+02 0.13184168837E+02 0.12962089495E+02 0.12663920601E+02
 0.12304173729E+02 0.11900051894E+02 0.11469182216E+02 0.11027715871E+02 0.10588978575E+02
 0.10162787670E+02 0.97554724038E+01 0.93705334954E+01 0.90097648882E+01 0.86745614339E+01
 0.83670879165E+01 0.80910176490E+01 0.78516667068E+01 0.76555200031E+01 0.75093092438E+01
 0.74189046793E+01 0.73882986227E+01 0.74189046793E+01 0.75093092438E+01 0.76555200031E+01
 0.78516667068E+01 0.80910176490E+01 0.83670879165E+01 0.86745614339E+01 0.90097648882E+01
 0.93705334954E+01 0.90426236735E+01 0.94812527318E+01 0.99430674105E+01 0.10420160587E+02
 0.10901070494E+02 0.11371131514E+02 0.11813495903E+02 0.12210724264E+02 0.12546762576E+02
 0.12809068592E+02 0.12987073614E+02 0.13068254171E+02 0.13053145680E+02 0.12958434505E+02
 0.12814089641E+02 0.12657749890E+02 0.12527377400E+02 0.12453640013E+02 0.12453640013E+02
 0.12527377400E+02 0.12657749890E+02 0.12814089641E+02 0.12958434505E+02 0.13053145680E+02
 0.13068254171E+02 0.12987073614E+02 0.12809068592E+02 0.12546762576E+02 0.12210724264E+02
 0.11813495903E+02 0.11371131514E+02 0.10901070494E+02 0.10420160587E+02 0.99430674105E+01
 0.94812527318E+01 0.90426236735E+01 0.86318469294E+01 0.82512004476E+01 0.79017275931E+01
 0.75843981611E+01 0.73009924957E+01 0.70545145184E+01 0.68490820571E+01 0.66893894942E+01
 0.65799371241E+01 0.65242470339E+01 0.65242470339E+01 0.65799371241E+01 0.66893894942E+01
 0.68490820571E+01 0.70545145184E+01 0.73009924957E+01 0.75843981611E+01 0.79017275931E+01
 0.82512004476E+01 0.86318469294E+01 0.84287878177E+01 0.88981755988E+01 0.93938545854E+01
 0.99068622735E+01 0.10424853680E+02 0.10932731000E+02 0.11413865073E+02 0.11851748288E+02
 0.12231853503E+02 0.12543359815E+02 0.12775238166E+02 0.12917341704E+02 0.12972874384E+02
 0.12958434505E+02 0.12900399182E+02 0.12829309817E+02 0.12773359426E+02 0.12752338909E+02
 0.12773359426E+02 0.12829309817E+02 0.12900399182E+02 0.12958434505E+02 0.12972874384E+02
 0.12917341704E+02 0.12775238166E+02 0.12543359815E+02 0.12231853503E+02 0.11851748288E+02
 0.11413865073E+02 0.10932731000E+02 0.10424853680E+02 0.99068622735E+01 0.93938545854E+01
 0.88981755988E+01 0.84287878177E+01 0.79912885054E+01 0.75885013928E+01 0.72214522646E+01
 0.68904627405E+01 0.65960893832E+01 0.63397021528E+01 0.61236178384E+01 0.59508381828E+01
 0.58245405425E+01 0.57475010041E+01 0.57215999965E+01 0.57475010041E+01 0.58245405425E+01
 0.59508381828E+01 0.61236178384E+01 0.63397021528E+01 0.65960893832E+01 0.68904627405E+01
 0.72214522646E+01 0.75885013928E+01 0.79912885054E+01 0.79127589887E+01 0.84122891213E+01
 0.89409395491E+01 0.94892725425E+01 0.10044745320E+02 0.10592499762E+02 0.11116635363E+02
 0.11601767324E+02 0.12034631298E+02 0.12405262997E+02 0.12702393951E+02 0.12917341704E+02
 0.13053145680E+02 0.13123271331E+02 0.13147852075E+02 0.13148668753E+02 0.13143920711E+02
 0.13143920711E+02 0.13148668753E+02 0.13147852075E+02 0.13123271331E+02 0.13053145680E+02
 0.12917341704E+02 0.12702393951E+02 0.12405262997E+02 0.12034631298E+02 0.11601767324E+02
 0.11116635363E+02 0.10592499762E+02 0.10044745320E+02 0.94892725425E+01 0.89409395491E+01
 0.84122891213E+01 0.79127589887E+01 0.74484822909E+01 0.70226600776E+01 0.66363624637E+01
 0.62895263617E+01 0.59818924261E+01 0.57136704280E+01 0.54858259031E+01 0.53000049125E+01
 0.51582121493E+01 0.50623967489E+01 0.50140769346E+01 0.50140769346E+01 0.50623967489E+01
 0.51582121493E+01 0.53000049125E+01 0.54858259031E+01 0.57136704280E+01 0.59818924261E+01
 0.62895263617E+01 0.66363624637E+01 0.70226600776E+01 0.74484822909E+01 0.74919159283E+01
 0.80221091746E+01 0.85847059123E+01 0.91702657545E+01 0.97664922709E+01 0.10359064748E+02
 0.10932839743E+02 0.11473210881E+02 0.11967401938E+02 0.12405262997E+02 0.12775238166E+02
 0.13068254171E+02 0.13284660460E+02 0.13432561742E+02 0.13524446351E+02 0.13573180720E+02
 0.13588264004E+02 0.13573180720E+02 0.13524446351E+02 0.13432561742E+02 0.13284660460E+02
 0.13068254171E+02 0.12775238166E+02 0.12405262997E+02 0.11967401938E+02 0.11473210881E+02
 0.10932839743E+02 0.10359064748E+02 0.97664922709E+01 0.91702657545E+01 0.85847059123E+01
 0.80221091746E+01 0.74919159283E+01 0.70003898971E+01 0.65508358296E+01 0.61442572321E+01
 0.57802578173E+01 0.54579494183E+01 0.51766571276E+01 0.49362991707E+01 0.47374333700E+01
 0.45810610816E+01 0.44683268111E+01 0.44002366183E+01 0.43774619266E+01 0.44002366183E+01
 0.44683268111E+01 0.45810610816E+01 0.47374333700E+01 0.49362991707E+01 0.51766571276E+01
 0.54579494183E+01 0.57802578173E+01 0.61442572321E+01 0.65508358296E+01 0.70003898971E+01
 0.71642286515E+01 0.77273709948E+01 0.83270172180E+01 0.89539663678E+01 0.95962839575E+01
 0.10240083532E+02 0.10870580054E+02 0.11473210881E+02 0.12034631298E+02 0.12543359815E+02
 0.12987073614E+02 0.13354544440E+02 0.13641632055E+02 0.13849961406E+02 0.13984322800E+02
 0.14049885306E+02 0.14049885306E+02 0.13984322800E+02 0.13849961406E+02 0.13641632055E+02
 0.13354544440E+02 0.12987073614E+02 0.12543359815E+02 0.12034631298E+02 0.11473210881E+02
 0.10870580054E+02 0.10240083532E+02 0.95962839575E+01 0.89539663678E+01 0.83270172180E+01
 0.77273709948E+01 0.71642286515E+01 0.66437046693E+01 0.61689614656E+01 0.57407707815E+01
 0.53583399670E+01 0.50201886372E+01 0.47248730950E+01 0.44714266265E+01 0.42594877670E+01
 0.40891872038E+01 0.39609198344E+01 0.38751240500E+01 0.38321380138E+01 0.38321380138E+01
 0.38751240500E+01 0.39609198344E+01 0.40891872038E+01 0.42594877670E+01 0.44714266265E+01
 0.47248730950E+01 0.50201886372E+01 0.53583399670E+01 0.57407707815E+01 0.61689614656E+01
 0.66437046693E+01 0.69291443260E+01 0.75292367886E+01 0.81706916908E+01 0.88445171302E+01
 0.95389403482E+01 0.10240083532E+02 0.10932839743E+02 0.11601767324E+02 0.12231853503E+02
 0.12809068592E+02 0.13319501917E+02 0.13748819787E+02 0.14087541610E+02 0.14330861426E+02
 0.14477021583E+02 0.14525728776E+02 0.14477021583E+02 0.14330861426E+02 0.14087541610E+02
 0.13748819787E+02 0.13319501917E+02 0.12809068592E+02 0.12231853503E+02 0.11601767324E+02
 0.10932839743E+02 0.10240083532E+02 0.95389403482E+01 0.88445171302E+01 0.81706916908E+01
 0.75292367886E+01 0.69291443260E+01 0.63763057902E+01 0.58736251952E+01 0.54215324114E+01
 0.50187645942E+01 0.46632240622E+01 0.43527200619E+01 0.40854578274E+01 0.38602310875E+01
 0.36763700697E+01 0.35335601542E+01 0.34316542364E+01 0.33705581800E+01 0.33502020899E+01
 0.33705581800E+01 0.34316542364E+01 0.35335601542E+01 0.36763700697E+01 0.38602310875E+01
 0.40854578274E+01 0.43527200619E+01 0.46632240622E+01 0.50187645942E+01 0.54215324114E+01
 0.58736251952E+01 0.63763057902E+01 0.67873646727E+01 0.74295157248E+01 0.81182482938E+01
 0.88445171302E+01 0.95962839575E+01 0.10359064748E+02 0.11116635363E+02 0.11851748288E+02
 0.12546762576E+02 0.13184168837E+02 0.13746978312E+02 0.14218121293E+02 0.14582979036E+02
 0.14831389168E+02 0.14957078160E+02 0.14957078160E+02 0.14831389168E+02 0.14582979036E+02
 0.14218121293E+02 0.13746978312E+02 0.13184168837E+02 0.12546762576E+02 0.11851748288E+02
 0.11116635363E+02 0.10359064748E+02 0.95962839575E+01 0.88445171302E+01 0.81182482938E+01
 0.74295157248E+01 0.67873646727E+01 0.61976006454E+01 0.56629246610E+01 0.51834370451E+01
 0.47574017530E+01 0.43821011559E+01 0.40546009492E+01 0.37722878942E+01 0.35331240584E+01
 0.33356517658E+01 0.31788508775E+01 0.30619699226E+01 0.29844212137E+01 0.29457674534E+01
 0.29457674534E+01 0.29844212137E+01 0.30619699226E+01 0.31788508775E+01 0.33356517658E+01
 0.35331240584E+01 0.37722878942E+01 0.40546009492E+01 0.43821011559E+01 0.47574017530E+01
 0.51834370451E+01 0.56629246610E+01 0.61976006454E+01 0.67399448099E+01 0.74295157248E+01
 0.81706916908E+01 0.89539663678E+01 0.97664922709E+01 0.10592499762E+02 0.11413865073E+02
 0.12210724264E+02 0.12962089495E+02 0.13646499814E+02 0.14242790455E+02 0.14731041158E+02
 0.15093492514E+02 0.15316485364E+02 0.15391739535E+02 0.15316485364E+02 0.15093492514E+02
 0.14731041158E+02 0.14242790455E+02 0.13646499814E+02 0.12962089495E+02 0.12210724264E+02
 0.11413865073E+02 0.10592499762E+02 0.97664922709E+01 0.89539663678E+01 0.81706916908E+01
 0.74295157248E+01 0.67399448099E+01 0.61079901617E+01 0.55363536106E+01 0.50249488935E+01
 0.45716689234E+01 0.41732487350E+01 0.38260577385E+01 0.35266873454E+01 0.32722692986E+01
 0.30605427619E+01 0.28897559324E+01 0.27585170171E+01 0.26656914415E+01 0.26103890068E+01
 0.25920236642E+01 0.26103890068E+01 0.26656914415E+01 0.27585170171E+01 0.28897559324E+01
 0.30605427619E+01 0.32722692986E+01 0.35266873454E+01 0.38260577385E+01 0.41732487350E+01
 0.45716689234E+01 0.50249488935E+01 0.55363536106E+01 0.61079901617E+01 0.67873646727E+01
 0.75292367886E+01 0.83270172180E+01 0.91702657545E+01 0.10044745320E+02 0.10932731000E+02