 vasp.5.4.1 24Jun15 (build Nov 25 2015 16:01:35) complex                        
  
 executed on         CrayXC-Intel date 2016.06.03  06:42:30
 running on   96 total cores
 distrk:  each k-point on   24 cores,    4 groups
 distr:  one band on NCORES_PER_BAND=   6 cores,    4 groups


--------------------------------------------------------------------------------------------------------


 INCAR:
 POTCAR:    PAW_PBE Si 05Jan2001                  

 ----------------------------------------------------------------------------- 
|                                                                             |
|           W    W    AA    RRRRR   N    N  II  N    N   GGGG   !!!           |
|           W    W   A  A   R    R  NN   N  II  NN   N  G    G  !!!           |
|           W    W  A    A  R    R  N N  N  II  N N  N  G       !!!           |
|           W WW W  AAAAAA  RRRRR   N  N N  II  N  N N  G  GGG   !            |
|           WW  WW  A    A  R   R   N   NN  II  N   NN  G    G                |
|           W    W  A    A  R    R  N    N  II  N    N   GGGG   !!!           |
|                                                                             |
|      You have enabled k-point parallelism (KPAR>1).                         |
|      This developmental code was originally  written by Paul Kent at ORNL,  |
|      and carefully double checked in Vienna.                                |
|      GW as well as linear response parallelism added by Martijn Marsman     |
|      and Georg Kresse.                                                      |
|      Carefully verify results versus KPAR=1.                                |
|      Report problems to Paul Kent and Vienna.                               |
|                                                                             |
 ----------------------------------------------------------------------------- 


 ----------------------------------------------------------------------------- 
|                                                                             |
|           W    W    AA    RRRRR   N    N  II  N    N   GGGG   !!!           |
|           W    W   A  A   R    R  NN   N  II  NN   N  G    G  !!!           |
|           W    W  A    A  R    R  N N  N  II  N N  N  G       !!!           |
|           W WW W  AAAAAA  RRRRR   N  N N  II  N  N N  G  GGG   !            |
|           WW  WW  A    A  R   R   N   NN  II  N   NN  G    G                |
|           W    W  A    A  R    R  N    N  II  N    N   GGGG   !!!           |
|                                                                             |
|      You have selected ISYM=2 for HF type calculation. This will symmetrize |
|      the charge density but not the exchange potential.                     |
|      I suggest to use ISYM=3 instead. This uses symmetry to obtain          |
|      the orbitals at all k-points in the Brillouine zone, but does not      |
|      apply symmetry to the Hartree potential directly.                      |
|      The resultant charge might have lower symmetry than the crystal,       |
|      but at least, Hartree and exchange are fully compatible.               |
|                                                                             |
 ----------------------------------------------------------------------------- 

 POTCAR:    PAW_PBE Si 05Jan2001                  
   VRHFIN =Si: s2p2                                                             
   LEXCH  = PE                                                                  
   EATOM  =   103.0669 eV,    7.5752 Ry                                         
                                                                                
   TITEL  = PAW_PBE Si 05Jan2001                                                
   LULTRA =        F    use ultrasoft PP ?                                      
   IUNSCR =        1    unscreen: 0-lin 1-nonlin 2-no                           
   RPACOR =    1.500    partial core radius                                     
   POMASS =   28.085; ZVAL   =    4.000    mass and valenz                      
   RCORE  =    1.900    outmost cutoff radius                                   
   RWIGS  =    2.480; RWIGS  =    1.312    wigner-seitz radius (au A)           
   ENMAX  =  245.345; ENMIN  =  184.009 eV                                      
   ICORE  =        2    local potential                                         
   LCOR   =        T    correct aug charges                                     
   LPAW   =        T    paw PP                                                  
   EAUG   =  322.069                                                            
   DEXC   =    0.000                                                            
   RMAX   =    1.950    core radius for proj-oper                               
   RAUG   =    1.300    factor for augmentation sphere                          
   RDEP   =    1.993    radius for radial grids                                 
   RDEPT  =    1.837    core radius for aug-charge                              
                                                                                
   Atomic configuration                                                         
    6 entries                                                                   
     n  l   j            E        occ.                                          
     1  0  0.50     -1785.8828   2.0000                                         
     2  0  0.50      -139.4969   2.0000                                         
     2  1  1.50       -95.5546   6.0000                                         
     3  0  0.50       -10.8127   2.0000                                         
     3  1  0.50        -4.0811   2.0000                                         
     3  2  1.50        -4.0817   0.0000                                         
   Description                                                                  
     l       E           TYP  RCUT    TYP  RCUT                                 
     0    -10.8127223     23  1.900                                             
     0     -7.6451159     23  1.900                                             
     1     -4.0811372     23  1.900                                             
     1      2.4879257     23  1.900                                             
     2     -4.0817478      7  1.900                                             
  local pseudopotential read in
  partial core-charges read in
  partial kinetic energy density read in
  atomic valenz-charges read in
  non local Contribution for L=           0  read in
    real space projection operators read in
  non local Contribution for L=           0  read in
    real space projection operators read in
  non local Contribution for L=           1  read in
    real space projection operators read in
  non local Contribution for L=           1  read in
    real space projection operators read in
    PAW grid and wavefunctions read in
 
   number of l-projection  operators is LMAX  =           4
   number of lm-projection operators is LMMAX =           8
 
  PAW_PBE Si 05Jan2001                  :
 energy of atom  1       EATOM= -103.0669
 kinetic energy error for atom=    0.0006 (will be added to EATOM!!)
 
 
 POSCAR: Si (Madelung Handbook, 295.7K)          
  positions in direct lattice
  velocities in cartesian coordinates
 exchange correlation table for  LEXCH =        8
   RHO(1)=    0.500       N(1)  =     2000
   RHO(2)=  100.500       N(2)  =     4000
 


--------------------------------------------------------------------------------------------------------


 ion  position               nearest neighbor table
   1  0.000  0.000  0.000-   2 2.35   2 2.35   2 2.35   2 2.35
   2  0.250  0.250  0.250-   1 2.35   1 2.35   1 2.35   1 2.35
 
  LATTYP: Found a face centered cubic cell.
 ALAT       =     5.4310000000
  
  Lattice vectors:
  
 A1 = (   2.7155000000,   2.7155000000,   0.0000000000)
 A2 = (   2.7155000000,   0.0000000000,  -2.7155000000)
 A3 = (   0.0000000000,   2.7155000000,  -2.7155000000)


Analysis of symmetry for initial positions (statically):
=====================================================================
 Subroutine PRICEL returns:
 Original cell was already a primitive cell.
 

 Routine SETGRP: Setting up the symmetry group for a 
 face centered cubic supercell.


 Subroutine GETGRP returns: Found 48 space group operations
 (whereof 24 operations were pure point group operations)
 out of a pool of 48 trial point group operations.


The static configuration has the point symmetry T_d .
 The point group associated with its full space group is O_h .


Analysis of symmetry for dynamics (positions and initial velocities):
=====================================================================
 Subroutine PRICEL returns:
 Original cell was already a primitive cell.
 

 Routine SETGRP: Setting up the symmetry group for a 
 face centered cubic supercell.


 Subroutine GETGRP returns: Found 48 space group operations
 (whereof 24 operations were pure point group operations)
 out of a pool of 48 trial point group operations.


The dynamic configuration has the point symmetry T_d .
 The point group associated with its full space group is O_h .


 Subroutine INISYM returns: Found 48 space group operations
 (whereof 24 operations are pure point group operations),
 and found     1 'primitive' translations

 
 
 KPOINTS: Automatically generated mesh: SCF=15, 0.
  k-points in reciprocal lattice
Space group operators:
 irot       det(A)        alpha          n_x          n_y          n_z        tau_x        tau_y        tau_z
    1     1.000000     0.000001     1.000000     0.000000     0.000000     0.000000     0.000000     0.000000
    2     1.000000   120.000000    -0.577350    -0.577350     0.577350     0.000000     0.000000     0.000000
    3     1.000000   120.000000     0.577350     0.577350    -0.577350     0.000000     0.000000     0.000000
    4    -1.000000    90.000000    -1.000000     0.000000     0.000000     0.000000     0.000000     0.000000
    5    -1.000000   180.000000     0.707107     0.707107     0.000000     0.000000     0.000000     0.000000
    6    -1.000000    90.000000     0.000000     1.000000     0.000000     0.000000     0.000000     0.000000
    7     1.000000   180.000000     1.000000     0.000000     0.000000     0.000000     0.000000     0.000000
    8     1.000000   120.000000     0.577350     0.577350     0.577350     0.000000     0.000000     0.000000
    9     1.000000   120.000000    -0.577350     0.577350     0.577350     0.000000     0.000000     0.000000
   10    -1.000000    90.000000     1.000000     0.000000     0.000000     0.000000     0.000000     0.000000
   11    -1.000000    90.000000     0.000000     0.000000     1.000000     0.000000     0.000000     0.000000
   12    -1.000000   180.000000     0.707107     0.000000    -0.707107     0.000000     0.000000     0.000000
   13     1.000000   120.000000     0.577350    -0.577350    -0.577350     0.000000     0.000000     0.000000
   14     1.000000   120.000000     0.577350    -0.577350     0.577350     0.000000     0.000000     0.000000
   15     1.000000   180.000000     0.000000     0.000000     1.000000     0.000000     0.000000     0.000000
   16    -1.000000    90.000000     0.000000    -1.000000     0.000000     0.000000     0.000000     0.000000
   17    -1.000000   180.000000     0.000000    -0.707107     0.707107     0.000000     0.000000     0.000000
   18    -1.000000    90.000000     0.000000     0.000000    -1.000000     0.000000     0.000000     0.000000
   19     1.000000   120.000000    -0.577350    -0.577350    -0.577350     0.000000     0.000000     0.000000
   20     1.000000   180.000000     0.000000     1.000000     0.000000     0.000000     0.000000     0.000000
   21     1.000000   120.000000    -0.577350     0.577350    -0.577350     0.000000     0.000000     0.000000
   22    -1.000000   180.000000     0.707107    -0.707107     0.000000     0.000000     0.000000     0.000000
   23    -1.000000   180.000000     0.000000     0.707107     0.707107     0.000000     0.000000     0.000000
   24    -1.000000   180.000000     0.707107     0.000000     0.707107     0.000000     0.000000     0.000000
   25    -1.000000     0.000001     1.000000     0.000000     0.000000     0.250000     0.250000     0.250000
   26    -1.000000   120.000000    -0.577350    -0.577350     0.577350     0.250000     0.250000     0.250000
   27    -1.000000   120.000000     0.577350     0.577350    -0.577350     0.250000     0.250000     0.250000
   28     1.000000    90.000000    -1.000000     0.000000     0.000000     0.250000     0.250000     0.250000
   29     1.000000   180.000000     0.707107     0.707107     0.000000     0.250000     0.250000     0.250000
   30     1.000000    90.000000     0.000000     1.000000     0.000000     0.250000     0.250000     0.250000
   31    -1.000000   180.000000     1.000000     0.000000     0.000000     0.250000     0.250000     0.250000
   32    -1.000000   120.000000     0.577350     0.577350     0.577350     0.250000     0.250000     0.250000
   33    -1.000000   120.000000    -0.577350     0.577350     0.577350     0.250000     0.250000     0.250000
   34     1.000000    90.000000     1.000000     0.000000     0.000000     0.250000     0.250000     0.250000
   35     1.000000    90.000000     0.000000     0.000000     1.000000     0.250000     0.250000     0.250000
   36     1.000000   180.000000     0.707107     0.000000    -0.707107     0.250000     0.250000     0.250000
   37    -1.000000   120.000000     0.577350    -0.577350    -0.577350     0.250000     0.250000     0.250000
   38    -1.000000   120.000000     0.577350    -0.577350     0.577350     0.250000     0.250000     0.250000
   39    -1.000000   180.000000     0.000000     0.000000     1.000000     0.250000     0.250000     0.250000
   40     1.000000    90.000000     0.000000    -1.000000     0.000000     0.250000     0.250000     0.250000
   41     1.000000   180.000000     0.000000    -0.707107     0.707107     0.250000     0.250000     0.250000
   42     1.000000    90.000000     0.000000     0.000000    -1.000000     0.250000     0.250000     0.250000
   43    -1.000000   120.000000    -0.577350    -0.577350    -0.577350     0.250000     0.250000     0.250000
   44    -1.000000   180.000000     0.000000     1.000000     0.000000     0.250000     0.250000     0.250000
   45    -1.000000   120.000000    -0.577350     0.577350    -0.577350     0.250000     0.250000     0.250000
   46     1.000000   180.000000     0.707107    -0.707107     0.000000     0.250000     0.250000     0.250000
   47     1.000000   180.000000     0.000000     0.707107     0.707107     0.250000     0.250000     0.250000
   48     1.000000   180.000000     0.707107     0.000000     0.707107     0.250000     0.250000     0.250000

 ----------------------------------------------------------------------------- 
|                                                                             |
|           W    W    AA    RRRRR   N    N  II  N    N   GGGG   !!!           |
|           W    W   A  A   R    R  NN   N  II  NN   N  G    G  !!!           |
|           W    W  A    A  R    R  N N  N  II  N N  N  G       !!!           |
|           W WW W  AAAAAA  RRRRR   N  N N  II  N  N N  G  GGG   !            |
|           WW  WW  A    A  R   R   N   NN  II  N   NN  G    G                |
|           W    W  A    A  R    R  N    N  II  N    N   GGGG   !!!           |
|                                                                             |
|      Your generating k-point grid is not commensurate to the symmetry       |
|      of the lattice.  This can cause   slow convergence with respect        |
|      to k-points for HF type calculations                                   |
|      suggested SOLUTIONS:                                                   |
|       ) if not already the case, use automatic k-point generation           |
|       ) shift your grid to Gamma (G) (e.g. required for hex or fcc lattice) |
|                                                                             |
 ----------------------------------------------------------------------------- 

 
 Subroutine IBZKPT_HF returns following result:
 ==============================================
 
 Found    354 k-points in 1st BZ
 the following    354 k-points will be used (e.g. in the exchange kernel)
 Following reciprocal coordinates:   # in IRBZ
  0.000000  0.000000  0.000000    0.00490196   1 t-inv F
  0.166667  0.000000  0.000000    0.00490196   2 t-inv F
  0.333333  0.000000  0.000000    0.00490196   3 t-inv F
  0.500000  0.000000  0.000000    0.00490196   4 t-inv F
  0.166667  0.166667  0.000000    0.00490196   5 t-inv F
  0.333333  0.166667  0.000000    0.00490196   6 t-inv F
  0.500000  0.166667  0.000000    0.00490196   7 t-inv F
 -0.333333  0.166667  0.000000    0.00490196   8 t-inv F
 -0.166667  0.166667  0.000000    0.00490196   9 t-inv F
  0.333333  0.333333  0.000000    0.00490196  10 t-inv F
  0.500000  0.333333  0.000000    0.00490196  11 t-inv F
 -0.333333  0.333333  0.000000    0.00490196  12 t-inv F
  0.500000  0.500000  0.000000    0.00490196  13 t-inv F
  0.500000  0.333333  0.166667    0.00490196  14 t-inv F
 -0.333333  0.333333  0.166667    0.00490196  15 t-inv F
  0.000000  0.000000  0.000000    0.00000000  16 t-inv F
  0.013889  0.000000  0.013889    0.00000000  17 t-inv F
  0.027778  0.000000  0.027778    0.00000000  18 t-inv F
  0.041667  0.000000  0.041667    0.00000000  19 t-inv F
  0.055556  0.000000  0.055556    0.00000000  20 t-inv F
  0.069444  0.000000  0.069444    0.00000000  21 t-inv F
  0.083333  0.000000  0.083333    0.00000000  22 t-inv F
  0.097222  0.000000  0.097222    0.00000000  23 t-inv F
  0.111111  0.000000  0.111111    0.00000000  24 t-inv F
  0.125000  0.000000  0.125000    0.00000000  25 t-inv F
  0.138889  0.000000  0.138889    0.00000000  26 t-inv F
  0.152778  0.000000  0.152778    0.00000000  27 t-inv F
  0.166667  0.000000  0.166667    0.00000000  28 t-inv F
  0.180556  0.000000  0.180556    0.00000000  29 t-inv F
  0.194444  0.000000  0.194444    0.00000000  30 t-inv F
  0.208333  0.000000  0.208333    0.00000000  31 t-inv F
  0.222222  0.000000  0.222222    0.00000000  32 t-inv F
  0.236111  0.000000  0.236111    0.00000000  33 t-inv F
  0.250000  0.000000  0.250000    0.00000000  34 t-inv F
  0.263889  0.000000  0.263889    0.00000000  35 t-inv F
  0.277778  0.000000  0.277778    0.00000000  36 t-inv F
  0.291667  0.000000  0.291667    0.00000000  37 t-inv F
  0.305556  0.000000  0.305556    0.00000000  38 t-inv F
  0.319444  0.000000  0.319444    0.00000000  39 t-inv F
  0.333333  0.000000  0.333333    0.00000000  40 t-inv F
  0.347222  0.000000  0.347222    0.00000000  41 t-inv F
  0.361111  0.000000  0.361111    0.00000000  42 t-inv F
  0.375000  0.000000  0.375000    0.00000000  43 t-inv F
  0.388889  0.000000  0.388889    0.00000000  44 t-inv F
  0.402778  0.000000  0.402778    0.00000000  45 t-inv F
  0.416667  0.000000  0.416667    0.00000000  46 t-inv F
  0.430556  0.000000  0.430556    0.00000000  47 t-inv F
  0.444444  0.000000  0.444444    0.00000000  48 t-inv F
  0.458333  0.000000  0.458333    0.00000000  49 t-inv F
  0.472222  0.000000  0.472222    0.00000000  50 t-inv F
  0.486111  0.000000  0.486111    0.00000000  51 t-inv F
  0.500000  0.000000  0.500000    0.00000000  52 t-inv F
  0.494565  0.016304  0.510870    0.00000000  53 t-inv F
  0.489130  0.032609  0.521739    0.00000000  54 t-inv F
  0.483696  0.048913  0.532609    0.00000000  55 t-inv F
  0.478261  0.065217  0.543478    0.00000000  56 t-inv F
  0.472826  0.081522  0.554348    0.00000000  57 t-inv F
  0.467391  0.097826  0.565217    0.00000000  58 t-inv F
  0.461957  0.114130  0.576087    0.00000000  59 t-inv F
  0.456522  0.130435  0.586956    0.00000000  60 t-inv F
  0.451087  0.146739  0.597826    0.00000000  61 t-inv F
  0.445652  0.163043  0.608696    0.00000000  62 t-inv F
  0.440217  0.179348  0.619565    0.00000000  63 t-inv F
  0.434783  0.195652  0.630435    0.00000000  64 t-inv F
  0.429348  0.211957  0.641304    0.00000000  65 t-inv F
  0.423913  0.228261  0.652174    0.00000000  66 t-inv F
  0.418478  0.244565  0.663044    0.00000000  67 t-inv F
  0.413043  0.260870  0.673913    0.00000000  68 t-inv F
  0.407609  0.277174  0.684783    0.00000000  69 t-inv F
  0.402174  0.293478  0.695652    0.00000000  70 t-inv F
  0.396739  0.309783  0.706522    0.00000000  71 t-inv F
  0.391304  0.326087  0.717391    0.00000000  72 t-inv F
  0.385870  0.342391  0.728261    0.00000000  73 t-inv F
  0.380435  0.358696  0.739130    0.00000000  74 t-inv F
  0.375000  0.375000  0.750000    0.00000000  75 t-inv F
  0.366848  0.366848  0.733696    0.00000000  76 t-inv F
  0.358696  0.358696  0.717391    0.00000000  77 t-inv F
  0.350543  0.350543  0.701087    0.00000000  78 t-inv F
  0.342391  0.342391  0.684783    0.00000000  79 t-inv F
  0.334239  0.334239  0.668478    0.00000000  80 t-inv F
  0.326087  0.326087  0.652174    0.00000000  81 t-inv F
  0.317935  0.317935  0.635870    0.00000000  82 t-inv F
  0.309783  0.309783  0.619565    0.00000000  83 t-inv F
  0.301630  0.301630  0.603261    0.00000000  84 t-inv F
  0.293478  0.293478  0.586956    0.00000000  85 t-inv F
  0.285326  0.285326  0.570652    0.00000000  86 t-inv F
  0.277174  0.277174  0.554348    0.00000000  87 t-inv F
  0.269022  0.269022  0.538044    0.00000000  88 t-inv F
  0.260870  0.260870  0.521739    0.00000000  89 t-inv F
  0.252717  0.252717  0.505435    0.00000000  90 t-inv F
  0.244565  0.244565  0.489130    0.00000000  91 t-inv F
  0.236413  0.236413  0.472826    0.00000000  92 t-inv F
  0.228261  0.228261  0.456522    0.00000000  93 t-inv F
  0.220109  0.220109  0.440217    0.00000000  94 t-inv F
  0.211957  0.211957  0.423913    0.00000000  95 t-inv F
  0.203804  0.203804  0.407609    0.00000000  96 t-inv F
  0.195652  0.195652  0.391304    0.00000000  97 t-inv F
  0.187500  0.187500  0.375000    0.00000000  98 t-inv F
  0.179348  0.179348  0.358696    0.00000000  99 t-inv F
  0.171196  0.171196  0.342391    0.00000000 100 t-inv F
  0.163043  0.163043  0.326087    0.00000000 101 t-inv F
  0.154891  0.154891  0.309783    0.00000000 102 t-inv F
  0.146739  0.146739  0.293478    0.00000000 103 t-inv F
  0.138587  0.138587  0.277174    0.00000000 104 t-inv F
  0.130435  0.130435  0.260870    0.00000000 105 t-inv F
  0.122283  0.122283  0.244565    0.00000000 106 t-inv F
  0.114130  0.114130  0.228261    0.00000000 107 t-inv F
  0.105978  0.105978  0.211956    0.00000000 108 t-inv F
  0.097826  0.097826  0.195652    0.00000000 109 t-inv F
  0.089674  0.089674  0.179348    0.00000000 110 t-inv F
  0.081522  0.081522  0.163044    0.00000000 111 t-inv F
  0.073370  0.073370  0.146739    0.00000000 112 t-inv F
  0.065217  0.065217  0.130435    0.00000000 113 t-inv F
  0.057065  0.057065  0.114130    0.00000000 114 t-inv F
  0.048913  0.048913  0.097826    0.00000000 115 t-inv F
  0.040761  0.040761  0.081522    0.00000000 116 t-inv F
  0.032609  0.032609  0.065217    0.00000000 117 t-inv F
  0.024457  0.024457  0.048913    0.00000000 118 t-inv F
  0.016304  0.016304  0.032609    0.00000000 119 t-inv F
  0.008152  0.008152  0.016304    0.00000000 120 t-inv F
  0.000000  0.000000  0.000000    0.00000000 121 t-inv F
  0.011364  0.011364  0.011364    0.00000000 122 t-inv F
  0.022727  0.022727  0.022727    0.00000000 123 t-inv F
  0.034091  0.034091  0.034091    0.00000000 124 t-inv F
  0.045455  0.045455  0.045455    0.00000000 125 t-inv F
  0.056818  0.056818  0.056818    0.00000000 126 t-inv F
  0.068182  0.068182  0.068182    0.00000000 127 t-inv F
  0.079545  0.079545  0.079545    0.00000000 128 t-inv F
  0.090909  0.090909  0.090909    0.00000000 129 t-inv F
  0.102273  0.102273  0.102273    0.00000000 130 t-inv F
  0.113636  0.113636  0.113636    0.00000000 131 t-inv F
  0.125000  0.125000  0.125000    0.00000000 132 t-inv F
  0.136364  0.136364  0.136364    0.00000000 133 t-inv F
  0.147727  0.147727  0.147727    0.00000000 134 t-inv F
  0.159091  0.159091  0.159091    0.00000000 135 t-inv F
  0.170455  0.170455  0.170455    0.00000000 136 t-inv F
  0.181818  0.181818  0.181818    0.00000000 137 t-inv F
  0.193182  0.193182  0.193182    0.00000000 138 t-inv F
  0.204545  0.204545  0.204545    0.00000000 139 t-inv F
  0.215909  0.215909  0.215909    0.00000000 140 t-inv F
  0.227273  0.227273  0.227273    0.00000000 141 t-inv F
  0.238636  0.238636  0.238636    0.00000000 142 t-inv F
  0.250000  0.250000  0.250000    0.00000000 143 t-inv F
  0.261364  0.261364  0.261364    0.00000000 144 t-inv F
  0.272727  0.272727  0.272727    0.00000000 145 t-inv F
  0.284091  0.284091  0.284091    0.00000000 146 t-inv F
  0.295455  0.295455  0.295455    0.00000000 147 t-inv F
  0.306818  0.306818  0.306818    0.00000000 148 t-inv F
  0.318182  0.318182  0.318182    0.00000000 149 t-inv F
  0.329545  0.329545  0.329545    0.00000000 150 t-inv F
  0.340909  0.340909  0.340909    0.00000000 151 t-inv F
  0.352273  0.352273  0.352273    0.00000000 152 t-inv F
  0.363636  0.363636  0.363636    0.00000000 153 t-inv F
  0.375000  0.375000  0.375000    0.00000000 154 t-inv F
  0.386364  0.386364  0.386364    0.00000000 155 t-inv F
  0.397727  0.397727  0.397727    0.00000000 156 t-inv F
  0.409091  0.409091  0.409091    0.00000000 157 t-inv F
  0.420455  0.420455  0.420455    0.00000000 158 t-inv F
  0.431818  0.431818  0.431818    0.00000000 159 t-inv F
  0.443182  0.443182  0.443182    0.00000000 160 t-inv F
  0.454545  0.454545  0.454545    0.00000000 161 t-inv F
  0.465909  0.465909  0.465909    0.00000000 162 t-inv F
  0.477273  0.477273  0.477273    0.00000000 163 t-inv F
  0.488636  0.488636  0.488636    0.00000000 164 t-inv F
  0.500000  0.500000  0.500000    0.00000000 165 t-inv F
  0.000000  0.166667  0.000000    0.00490196   2 t-inv F
  0.000000  0.000000  0.166667    0.00490196   2 t-inv F
 -0.166667 -0.166667 -0.166667    0.00490196   2 t-inv F
 -0.166667  0.000000  0.000000    0.00490196   2 t-inv F
  0.000000 -0.166667  0.000000    0.00490196   2 t-inv F
  0.000000  0.000000 -0.166667    0.00490196   2 t-inv F
  0.166667  0.166667  0.166667    0.00490196   2 t-inv F
  0.000000  0.333333  0.000000    0.00490196   3 t-inv F
  0.000000  0.000000  0.333333    0.00490196   3 t-inv F
 -0.333333 -0.333333 -0.333333    0.00490196   3 t-inv F
 -0.333333  0.000000  0.000000    0.00490196   3 t-inv F
  0.000000 -0.333333  0.000000    0.00490196   3 t-inv F
  0.000000  0.000000 -0.333333    0.00490196   3 t-inv F
  0.333333  0.333333  0.333333    0.00490196   3 t-inv F
  0.000000  0.500000  0.000000    0.00490196   4 t-inv F
  0.000000  0.000000  0.500000    0.00490196   4 t-inv F
 -0.500000 -0.500000 -0.500000    0.00490196   4 t-inv F
  0.000000  0.166667  0.166667    0.00490196   5 t-inv F
  0.166667  0.000000  0.166667    0.00490196   5 t-inv F
 -0.166667 -0.166667  0.000000    0.00490196   5 t-inv F
 -0.166667  0.000000 -0.166667    0.00490196   5 t-inv F
  0.000000 -0.166667 -0.166667    0.00490196   5 t-inv F
  0.000000  0.333333  0.166667    0.00490196   6 t-inv F
  0.166667  0.000000  0.333333    0.00490196   6 t-inv F
 -0.166667 -0.166667  0.166667    0.00490196   6 t-inv F
 -0.333333 -0.166667 -0.333333    0.00490196   6 t-inv F
  0.166667  0.333333  0.000000    0.00490196   6 t-inv F
  0.166667 -0.166667 -0.166667    0.00490196   6 t-inv F
 -0.333333 -0.333333 -0.166667    0.00490196   6 t-inv F
  0.000000  0.166667  0.333333    0.00490196   6 t-inv F
 -0.166667  0.166667 -0.166667    0.00490196   6 t-inv F
 -0.166667 -0.333333 -0.333333    0.00490196   6 t-inv F
  0.333333  0.000000  0.166667    0.00490196   6 t-inv F
 -0.333333 -0.166667  0.000000    0.00490196   6 t-inv F
  0.000000 -0.333333 -0.166667    0.00490196   6 t-inv F
 -0.166667  0.000000 -0.333333    0.00490196   6 t-inv F
  0.166667  0.166667 -0.166667    0.00490196   6 t-inv F
  0.333333  0.166667  0.333333    0.00490196   6 t-inv F
 -0.166667 -0.333333  0.000000    0.00490196   6 t-inv F
 -0.166667  0.166667  0.166667    0.00490196   6 t-inv F
  0.333333  0.333333  0.166667    0.00490196   6 t-inv F
  0.000000 -0.166667 -0.333333    0.00490196   6 t-inv F
  0.166667 -0.166667  0.166667    0.00490196   6 t-inv F
  0.166667  0.333333  0.333333    0.00490196   6 t-inv F
 -0.333333  0.000000 -0.166667    0.00490196   6 t-inv F
  0.000000  0.500000  0.166667    0.00490196   7 t-inv F
  0.166667  0.000000  0.500000    0.00490196   7 t-inv F
 -0.166667 -0.166667  0.333333    0.00490196   7 t-inv F
 -0.500000 -0.333333 -0.500000    0.00490196   7 t-inv F
  0.166667  0.500000  0.000000    0.00490196   7 t-inv F
  0.333333 -0.166667 -0.166667    0.00490196   7 t-inv F
 -0.500000 -0.500000 -0.333333    0.00490196   7 t-inv F
  0.000000  0.166667  0.500000    0.00490196   7 t-inv F
 -0.166667  0.333333 -0.166667    0.00490196   7 t-inv F
 -0.333333 -0.500000 -0.500000    0.00490196   7 t-inv F
  0.500000  0.000000  0.166667    0.00490196   7 t-inv F
 -0.500000 -0.166667  0.000000    0.00490196   7 t-inv F
  0.000000 -0.500000 -0.166667    0.00490196   7 t-inv F
 -0.166667  0.000000 -0.500000    0.00490196   7 t-inv F
  0.166667  0.166667 -0.333333    0.00490196   7 t-inv F
  0.500000  0.333333  0.500000    0.00490196   7 t-inv F
 -0.166667 -0.500000  0.000000    0.00490196   7 t-inv F
 -0.333333  0.166667  0.166667    0.00490196   7 t-inv F
  0.500000  0.500000  0.333333    0.00490196   7 t-inv F
  0.000000 -0.166667 -0.500000    0.00490196   7 t-inv F
  0.166667 -0.333333  0.166667    0.00490196   7 t-inv F
  0.333333  0.500000  0.500000    0.00490196   7 t-inv F
 -0.500000  0.000000 -0.166667    0.00490196   7 t-inv F
  0.000000 -0.333333  0.166667    0.00490196   8 t-inv F
  0.166667  0.000000 -0.333333    0.00490196   8 t-inv F
 -0.166667 -0.166667 -0.500000    0.00490196   8 t-inv F
  0.333333  0.500000  0.333333    0.00490196   8 t-inv F
  0.166667 -0.333333  0.000000    0.00490196   8 t-inv F
 -0.500000 -0.166667 -0.166667    0.00490196   8 t-inv F
  0.333333  0.333333  0.500000    0.00490196   8 t-inv F
  0.000000  0.166667 -0.333333    0.00490196   8 t-inv F
 -0.166667 -0.500000 -0.166667    0.00490196   8 t-inv F
  0.500000  0.333333  0.333333    0.00490196   8 t-inv F
 -0.333333  0.000000  0.166667    0.00490196   8 t-inv F
  0.333333 -0.166667  0.000000    0.00490196   8 t-inv F
  0.000000  0.333333 -0.166667    0.00490196   8 t-inv F
 -0.166667  0.000000  0.333333    0.00490196   8 t-inv F
  0.166667  0.166667  0.500000    0.00490196   8 t-inv F
 -0.333333 -0.500000 -0.333333    0.00490196   8 t-inv F
 -0.166667  0.333333  0.000000    0.00490196   8 t-inv F
  0.500000  0.166667  0.166667    0.00490196   8 t-inv F
 -0.333333 -0.333333 -0.500000    0.00490196   8 t-inv F
  0.000000 -0.166667  0.333333    0.00490196   8 t-inv F
  0.166667  0.500000  0.166667    0.00490196   8 t-inv F
 -0.500000 -0.333333 -0.333333    0.00490196   8 t-inv F
  0.333333  0.000000 -0.166667    0.00490196   8 t-inv F
  0.000000 -0.166667  0.166667    0.00490196   9 t-inv F
  0.166667  0.000000 -0.166667    0.00490196   9 t-inv F
 -0.166667 -0.166667 -0.333333    0.00490196   9 t-inv F
  0.166667  0.333333  0.166667    0.00490196   9 t-inv F
  0.166667 -0.166667  0.000000    0.00490196   9 t-inv F
 -0.333333 -0.166667 -0.166667    0.00490196   9 t-inv F
  0.166667  0.166667  0.333333    0.00490196   9 t-inv F
  0.000000  0.166667 -0.166667    0.00490196   9 t-inv F
 -0.166667 -0.333333 -0.166667    0.00490196   9 t-inv F
  0.333333  0.166667  0.166667    0.00490196   9 t-inv F
 -0.166667  0.000000  0.166667    0.00490196   9 t-inv F
  0.000000  0.333333  0.333333    0.00490196  10 t-inv F
  0.333333  0.000000  0.333333    0.00490196  10 t-inv F
 -0.333333 -0.333333  0.000000    0.00490196  10 t-inv F
 -0.333333  0.000000 -0.333333    0.00490196  10 t-inv F
  0.000000 -0.333333 -0.333333    0.00490196  10 t-inv F
  0.000000  0.500000  0.333333    0.00490196  11 t-inv F
  0.333333  0.000000  0.500000    0.00490196  11 t-inv F
 -0.333333 -0.333333  0.166667    0.00490196  11 t-inv F
 -0.500000 -0.166667 -0.500000    0.00490196  11 t-inv F
  0.333333  0.500000  0.000000    0.00490196  11 t-inv F
  0.166667 -0.333333 -0.333333    0.00490196  11 t-inv F
 -0.500000 -0.500000 -0.166667    0.00490196  11 t-inv F
  0.000000  0.333333  0.500000    0.00490196  11 t-inv F
 -0.333333  0.166667 -0.333333    0.00490196  11 t-inv F
 -0.166667 -0.500000 -0.500000    0.00490196  11 t-inv F
  0.500000  0.000000  0.333333    0.00490196  11 t-inv F
 -0.500000 -0.333333  0.000000    0.00490196  11 t-inv F
  0.000000 -0.500000 -0.333333    0.00490196  11 t-inv F
 -0.333333  0.000000 -0.500000    0.00490196  11 t-inv F
  0.333333  0.333333 -0.166667    0.00490196  11 t-inv F
  0.500000  0.166667  0.500000    0.00490196  11 t-inv F
 -0.333333 -0.500000  0.000000    0.00490196  11 t-inv F
 -0.166667  0.333333  0.333333    0.00490196  11 t-inv F
  0.500000  0.500000  0.166667    0.00490196  11 t-inv F
  0.000000 -0.333333 -0.500000    0.00490196  11 t-inv F
  0.333333 -0.166667  0.333333    0.00490196  11 t-inv F
  0.166667  0.500000  0.500000    0.00490196  11 t-inv F
 -0.500000  0.000000 -0.333333    0.00490196  11 t-inv F
  0.000000 -0.333333  0.333333    0.00490196  12 t-inv F
  0.333333  0.000000 -0.333333    0.00490196  12 t-inv F
 -0.333333 -0.333333 -0.666667    0.00490196  12 t-inv F
  0.333333  0.666667  0.333333    0.00490196  12 t-inv F
  0.333333 -0.333333  0.000000    0.00490196  12 t-inv F
 -0.666667 -0.333333 -0.333333    0.00490196  12 t-inv F
  0.333333  0.333333  0.666667    0.00490196  12 t-inv F
  0.000000  0.333333 -0.333333    0.00490196  12 t-inv F
 -0.333333 -0.666667 -0.333333    0.00490196  12 t-inv F
  0.666667  0.333333  0.333333    0.00490196  12 t-inv F
 -0.333333  0.000000  0.333333    0.00490196  12 t-inv F
  0.000000  0.500000  0.500000    0.00490196  13 t-inv F
  0.500000  0.000000  0.500000    0.00490196  13 t-inv F
  0.166667  0.500000  0.333333    0.00490196  14 t-inv F
  0.333333  0.166667  0.500000    0.00490196  14 t-inv F
 -0.333333 -0.166667  0.166667    0.00490196  14 t-inv F
 -0.500000 -0.166667 -0.333333    0.00490196  14 t-inv F
 -0.166667  0.333333  0.166667    0.00490196  14 t-inv F
  0.166667  0.333333 -0.166667    0.00490196  14 t-inv F
  0.166667 -0.166667 -0.333333    0.00490196  14 t-inv F
 -0.333333 -0.166667 -0.500000    0.00490196  14 t-inv F
 -0.333333 -0.500000 -0.166667    0.00490196  14 t-inv F
  0.166667 -0.166667  0.333333    0.00490196  14 t-inv F
  0.166667 -0.333333 -0.166667    0.00490196  14 t-inv F
 -0.166667  0.166667  0.333333    0.00490196  14 t-inv F
 -0.333333  0.166667 -0.166667    0.00490196  14 t-inv F
 -0.500000 -0.333333 -0.166667    0.00490196  14 t-inv F
 -0.166667 -0.333333 -0.500000    0.00490196  14 t-inv F
  0.333333  0.166667 -0.166667    0.00490196  14 t-inv F
 -0.166667  0.166667 -0.333333    0.00490196  14 t-inv F
  0.333333 -0.166667  0.166667    0.00490196  14 t-inv F
 -0.166667 -0.333333  0.166667    0.00490196  14 t-inv F
 -0.166667 -0.500000 -0.333333    0.00490196  14 t-inv F
  0.500000  0.166667  0.333333    0.00490196  14 t-inv F
  0.333333  0.500000  0.166667    0.00490196  14 t-inv F
  0.166667  0.333333  0.500000    0.00490196  14 t-inv F
  0.166667 -0.333333  0.333333    0.00490196  15 t-inv F
  0.333333  0.166667 -0.333333    0.00490196  15 t-inv F
 -0.333333 -0.166667 -0.666667    0.00490196  15 t-inv F
  0.333333  0.666667  0.500000    0.00490196  15 t-inv F
 -0.166667 -0.500000  0.166667    0.00490196  15 t-inv F
  0.166667 -0.500000 -0.166667    0.00490196  15 t-inv F
 -0.666667 -0.166667 -0.333333    0.00490196  15 t-inv F
  0.500000  0.666667  0.333333    0.00490196  15 t-inv F
  0.500000  0.333333  0.666667    0.00490196  15 t-inv F
  0.166667 -0.166667 -0.500000    0.00490196  15 t-inv F
 -0.666667 -0.333333 -0.166667    0.00490196  15 t-inv F
 -0.166667  0.166667 -0.500000    0.00490196  15 t-inv F
 -0.333333 -0.666667 -0.166667    0.00490196  15 t-inv F
  0.333333  0.500000  0.666667    0.00490196  15 t-inv F
  0.666667  0.500000  0.333333    0.00490196  15 t-inv F
 -0.500000  0.166667 -0.166667    0.00490196  15 t-inv F
 -0.166667 -0.666667 -0.333333    0.00490196  15 t-inv F
 -0.500000 -0.166667  0.166667    0.00490196  15 t-inv F
 -0.166667 -0.333333 -0.666667    0.00490196  15 t-inv F
  0.666667  0.333333  0.500000    0.00490196  15 t-inv F
 -0.333333  0.166667  0.333333    0.00490196  15 t-inv F
  0.333333 -0.333333  0.166667    0.00490196  15 t-inv F
  0.166667  0.333333 -0.333333    0.00490196  15 t-inv F


--------------------------------------------------------------------------------------------------------




 Dimension of arrays:
   k-points           NKPTS =    165   k-points in BZ     NKDIM =    354   number of bands    NBANDS=      8
   number of dos      NEDOS =    301   number of ions     NIONS =      2
   non local maximal  LDIM  =      4   non local SUM 2l+1 LMDIM =      8
   total plane-waves  NPLWV =  21952
   max r-space proj   IRMAX =      1   max aug-charges    IRDMAX=  18525
   dimension x,y,z NGX =    28 NGY =   28 NGZ =   28
   dimension x,y,z NGXF=    56 NGYF=   56 NGZF=   56
   support grid    NGXF=    56 NGYF=   56 NGZF=   56
   ions per type =               2
 NGX,Y,Z   is equivalent  to a cutoff of  12.12, 12.12, 12.12 a.u.
 NGXF,Y,Z  is equivalent  to a cutoff of  24.24, 24.24, 24.24 a.u.


 I would recommend the setting:
   dimension x,y,z NGX =    28 NGY =   28 NGZ =   28
 SYSTEM =  Name                                    
 POSCAR =  Si (Madelung Handbook, 295.7K)          

 Startparameter for this run:
   NWRITE =      2    write-flag & timer
   PREC   = accura    normal or accurate (medium, high low for compatibility)
   ISTART =      0    job   : 0-new  1-cont  2-samecut
   ICHARG =      2    charge: 1-file 2-atom 10-const
   ISPIN  =      1    spin polarized calculation?
   LNONCOLLINEAR =      F non collinear calculations
   LSORBIT =      F    spin-orbit coupling
   INIWAV =      1    electr: 0-lowe 1-rand  2-diag
   LASPH  =      F    aspherical Exc in radial PAW
   METAGGA=      F    non-selfconsistent MetaGGA calc.

 Electronic Relaxation 1
   ENCUT  =  500.0 eV  36.75 Ry    6.06 a.u.   7.00  7.00  7.00*2*pi/ulx,y,z
   ENINI  =  500.0     initial cutoff
   ENAUG  =  322.1 eV  augmentation charge cutoff
   NELM   =     60;   NELMIN=  2; NELMDL=  0     # of ELM steps 
   EDIFF  = 0.1E-05   stopping-criterion for ELM
   LREAL  =      F    real-space projection
   NLSPLINE    = F    spline interpolate recip. space projectors
   LCOMPAT=      F    compatible to vasp.4.4
   GGA_COMPAT  = T    GGA compatible to vasp.4.4-vasp.4.6
   LMAXPAW     = -100 max onsite density
   LMAXMIX     =    2 max onsite mixed and CHGCAR
   VOSKOWN=      0    Vosko Wilk Nusair interpolation
   ROPT   =    0.00000
 Ionic relaxation
   EDIFFG = -.5E-02   stopping-criterion for IOM
   NSW    =      1    number of steps for IOM
   NBLOCK =      1;   KBLOCK =      1    inner block; outer block 
   IBRION =      2    ionic relax: 0-MD 1-quasi-New 2-CG
   NFREE  =      1    steps in history (QN), initial steepest desc. (CG)
   ISIF   =      3    stress and relaxation
   IWAVPR =     11    prediction:  0-non 1-charg 2-wave 3-comb
   ISYM   =      2    0-nonsym 1-usesym 2-fastsym
   LCORR  =      T    Harris-Foulkes like correction to forces

   POTIM  = 0.5000    time-step for ionic-motion
   TEIN   =    0.0    initial temperature
   TEBEG  =    0.0;   TEEND  =   0.0 temperature during run
   SMASS  =  -3.00    Nose mass-parameter (am)
   estimated Nose-frequenzy (Omega)   =  0.10E-29 period in steps =****** mass=  -0.337E-27a.u.
   SCALEE = 1.0000    scale energy and forces
   NPACO  =    256;   APACO  = 16.0  distance and # of slots for P.C.
   PSTRESS=    0.0 pullay stress

  Mass of Ions in am
   POMASS =  28.09
  Ionic Valenz
   ZVAL   =   4.00
  Atomic Wigner-Seitz radii
   RWIGS  =  -1.00
  virtual crystal weights 
   VCA    =   1.00
   NELECT =       8.0000    total number of electrons
   NUPDOWN=      -1.0000    fix difference up-down

 DOS related values:
   EMIN   =  10.00;   EMAX   =-10.00  energy-range for DOS
   EFERMI =   0.00
   ISMEAR =     0;   SIGMA  =   0.01  broadening in eV -4-tet -1-fermi 0-gaus

 Electronic relaxation 2 (details)
   IALGO  =     58    algorithm
   LDIAG  =      T    sub-space diagonalisation (order eigenvalues)
   LSUBROT=      F    optimize rotation matrix (better conditioning)
   TURBO    =      0    0=normal 1=particle mesh
   IRESTART =      0    0=no restart 2=restart with 2 vectors
   NREBOOT  =      0    no. of reboots
   NMIN     =      0    reboot dimension
   EREF     =   0.00    reference energy to select bands
   IMIX   =      4    mixing-type and parameters
     AMIX     =   0.40;   BMIX     =  1.00
     AMIX_MAG =   1.60;   BMIX_MAG =  1.00
     AMIN     =   0.01
     WC   =   100.;   INIMIX=   1;  MIXPRE=   1;  MAXMIX= -45

 Intra band minimization:
   WEIMIN = 0.0010     energy-eigenvalue tresh-hold
   EBREAK =  0.31E-07  absolut break condition
   DEPER  =   0.30     relativ break condition  

   TIME   =   0.40     timestep for ELM

  volume/ion in A,a.u.               =      20.02       135.13
  Fermi-wavevector in a.u.,A,eV,Ry     =   0.956999  1.808467 12.460868  0.915848
  Thomas-Fermi vector in A             =   2.085978
 
 Write flags
   LWAVE  =      T    write WAVECAR
   LCHARG =      T    write CHGCAR
   LVTOT  =      F    write LOCPOT, total local potential
   LVHAR  =      F    write LOCPOT, Hartree potential only
   LELF   =      F    write electronic localiz. function (ELF)
   LORBIT =     10    0 simple, 1 ext, 2 COOP (PROOUT)


 Dipole corrections
   LMONO  =      F    monopole corrections only (constant potential shift)
   LDIPOL =      F    correct potential (dipole corrections)
   IDIPOL =      0    1-x, 2-y, 3-z, 4-all directions 
   EPSILON=  1.0000000 bulk dielectric constant

 Core level calculations are selected ICORELEVEL =  1
 Exchange correlation treatment:
   GGA     =    PE    GGA type
   LEXCH   =     8    internal setting for exchange type
   VOSKOWN=      0    Vosko Wilk Nusair interpolation
   EXXOEP  =     0    0=HF, 1=EXX-LHF (local Hartree Fock) 2=EXX OEP
   LHFCALC =     T    Hartree Fock is set to
   LSYMGRAD=     F    symmetrize gradient (conserves proper symmetry)
   PRECFOCK=fast      Normal, Fast or Accurate (Low or Medium for compatibility)
   LRHFCALC=     F    long range Hartree Fock
   LRSCOR  =     F    long range correlation only (use DFT for short range part)
   LTHOMAS =     F    Thomas Fermi screening in HF
   LMODELHF=     F    short range full HF, long range fraction AEXX
   ENCUT4O =  -1.0   cutoff for four orbital integrals eV
   LMAXFOCK=     4    L truncation for augmentation on plane wave grid
   LMAXFOCKAE=  -1    L truncation for all-electron charge restoration on plane wave grid
   NMAXFOCKAE=   1    number of basis functions for all-electron charge restoration
   LFOCKAEDFT=     F  apply the AE augmentation even for DFT
   NKREDX  =     1    reduce k-point grid by
   NKREDY  =     1    reduce k-point grid by
   NKREDZ  =     1    reduce k-point grid by
   SHIFTRED=     F    shift reduced grid of Gamma
   HFKIDENT=     F    idential grid for each k-point
   ODDONLY =     F    use only odd q-grid points
   EVENONLY=     F    use only even q-grid points
   HFALPHA =   -1.0000 decay constant for conv. correction
   MCALPHA =    0.0000 extent of test-charge in conv. correction in multipole expansion
   AEXX    =    0.2500 exact exchange contribution
   HFSCREEN=    0.2070 screening length (either q_TF or 0.3 A-1)
   HFSCREENC=   0.2070 screening length for correlation (either q_TF or 0.3 A-1)
   HFRCUT  =    0.0000 spherical cutoff for potential kernel
   ALDAX   =    0.7500 LDA exchange part
   AGGAX   =    0.7500 GGA exchange part
   ALDAC   =    1.0000 LDA correlation
   AGGAC   =    1.0000 GGA correlation
   NBANDSGWLOW=     1    first orbital included in HF term
   ENCUTFOCK=  -1.0 apply spherical cutoff to Coloumb kernel
 Linear response parameters
   LEPSILON=     F    determine dielectric tensor
   LRPA    =     F    only Hartree local field effects (RPA)
   LNABLA  =     F    use nabla operator in PAW spheres
   LVEL    =     F    velocity operator in full k-point grid
   LINTERFAST=   F  fast interpolation
   KINTER  =     0    interpolate to denser k-point grid
   CSHIFT  =0.1000    complex shift for real part using Kramers Kronig
   OMEGAMAX=  -1.0    maximum frequency
   DEG_THRESHOLD= 0.2000000E-02 threshold for treating states as degnerate
   RTIME   =    0.100 relaxation time in fs

 Orbital magnetization related:
   ORBITALMAG=     F  switch on orbital magnetization
   LCHIMAG   =     F  perturbation theory with respect to B field
   DQ        =  0.001000  dq finite difference perturbation B field



--------------------------------------------------------------------------------------------------------


 conjugate gradient relaxation of ions
 charge density and potential will be updated during run
 non-spin polarized calculation
 Conjugate gradient for all bands (Freysoldt, et al. PRB 79, 241103 (2009))
 preconditioned conjugated gradient                                        
 perform sub-space diagonalisation
    before iterative eigenvector-optimisation
 modified Broyden-mixing scheme, WC =      100.0
 initial mixing is a Kerker type mixing with AMIX =  0.4000 and BMIX =      1.0000
 Hartree-type preconditioning will be used
 using additional bands            4
 reciprocal scheme for non local part
 use partial core corrections
 no Harris-corrections to forces 
 use gradient corrections 
 use of overlap-Matrix (Vanderbilt PP)
 Gauss-broadening in eV      SIGMA  =   0.01


--------------------------------------------------------------------------------------------------------


  energy-cutoff  :      500.00
  volume of cell :       40.05
      direct lattice vectors                 reciprocal lattice vectors
     2.715500000  2.715500000  0.000000000     0.184128153  0.184128153  0.184128153
     2.715500000  0.000000000 -2.715500000     0.184128153 -0.184128153 -0.184128153
     0.000000000  2.715500000 -2.715500000    -0.184128153  0.184128153 -0.184128153

  length of vectors
     3.840296929  3.840296929  3.840296929     0.318919316  0.318919316  0.318919316


 
 k-points in units of 2pi/SCALE and weight: Automatically generated mesh: SCF=15, 0.
   0.00000000  0.00000000  0.00000000       0.005
   0.16666667  0.16666667  0.16666667       0.039
   0.33333333  0.33333333  0.33333333       0.039
   0.50000000  0.50000000  0.50000000       0.020
   0.33333333  0.00000000  0.00000000       0.029
   0.50000000  0.16666667  0.16666667       0.118
   0.66666667  0.33333333  0.33333333       0.118
  -0.16666667 -0.50000000 -0.50000000       0.118
   0.00000000 -0.33333333 -0.33333333       0.059
   0.66666667  0.00000000  0.00000000       0.029
   0.83333333  0.16666667  0.16666667       0.118
   0.00000000 -0.66666667 -0.66666667       0.059
   1.00000000  0.00000000  0.00000000       0.015
   0.66666667  0.33333333  0.00000000       0.118
  -0.16666667 -0.50000000 -0.83333333       0.118
   0.00000000  0.00000000  0.00000000       0.000
   0.00000000  0.02777778  0.00000000       0.000
   0.00000000  0.05555556  0.00000000       0.000
   0.00000000  0.08333332  0.00000000       0.000
   0.00000000  0.11111110  0.00000000       0.000
   0.00000000  0.13888888  0.00000000       0.000
   0.00000000  0.16666666  0.00000000       0.000
   0.00000000  0.19444444  0.00000000       0.000
   0.00000000  0.22222220  0.00000000       0.000
   0.00000000  0.24999998  0.00000000       0.000
   0.00000000  0.27777776  0.00000000       0.000
   0.00000000  0.30555556  0.00000000       0.000
   0.00000000  0.33333332  0.00000000       0.000
   0.00000000  0.36111108  0.00000000       0.000
   0.00000000  0.38888890  0.00000000       0.000
   0.00000000  0.41666666  0.00000000       0.000
   0.00000000  0.44444442  0.00000000       0.000
   0.00000000  0.47222218  0.00000000       0.000
   0.00000000  0.49999998  0.00000000       0.000
   0.00000000  0.52777780  0.00000000       0.000
   0.00000000  0.55555552  0.00000000       0.000
   0.00000000  0.58333332  0.00000000       0.000
   0.00000000  0.61111110  0.00000000       0.000
   0.00000000  0.63888890  0.00000000       0.000
   0.00000000  0.66666662  0.00000000       0.000
   0.00000000  0.69444442  0.00000000       0.000
   0.00000000  0.72222214  0.00000000       0.000
   0.00000000  0.75000000  0.00000000       0.000
   0.00000000  0.77777780  0.00000000       0.000
   0.00000000  0.80555552  0.00000000       0.000
   0.00000000  0.83333332  0.00000000       0.000
   0.00000000  0.86111104  0.00000000       0.000
   0.00000000  0.88888884  0.00000000       0.000
   0.00000000  0.91666668  0.00000000       0.000
   0.00000000  0.94444436  0.00000000       0.000
   0.00000000  0.97222220  0.00000000       0.000
   0.00000000  0.99999994  0.00000000       0.000
   0.00000001  0.98913043 -0.03260869       0.000
   0.00000001  0.97826087 -0.06521739       0.000
   0.00000001  0.96739131 -0.09782607       0.000
   0.00000001  0.95652173 -0.13043477       0.000
   0.00000002  0.94565216 -0.16304346       0.000
   0.00000002  0.93478260 -0.19565216       0.000
   0.00000003  0.92391303 -0.22826085       0.000
   0.00000003  0.91304347 -0.26086953       0.000
   0.00000005  0.90217389 -0.29347823       0.000
   0.00000004  0.89130434 -0.32608692       0.000
   0.00000006  0.88043476 -0.35869562       0.000
   0.00000004  0.86956520 -0.39130430       0.000
  -0.00000004  0.85869566 -0.42391308       0.000
  -0.00000004  0.84782610 -0.45652178       0.000
  -0.00000003  0.83695653 -0.48913047       0.000
  -0.00000003  0.82608697 -0.52173915       0.000
  -0.00000002  0.81521740 -0.55434784       0.000
   0.00000000  0.80434782 -0.58695656       0.000
  -0.00000003  0.79347829 -0.61956521       0.000
   0.00000000  0.78260868 -0.65217394       0.000
   0.00000000  0.77173912 -0.68478262       0.000
   0.00000003  0.76086953 -0.71739135       0.000
   0.00000000  0.75000000 -0.75000000       0.000
  -0.00000001  0.73369563 -0.73369563       0.000
   0.00000001  0.71739131 -0.71739131       0.000
   0.00000000  0.70108694 -0.70108694       0.000
   0.00000000  0.68478262 -0.68478262       0.000
   0.00000001  0.66847825 -0.66847825       0.000
   0.00000000  0.65217394 -0.65217394       0.000
   0.00000000  0.63586956 -0.63586956       0.000
  -0.00000001  0.61956525 -0.61956525       0.000
   0.00000001  0.60326087 -0.60326087       0.000
   0.00000000  0.58695650 -0.58695650       0.000
  -0.00000001  0.57065219 -0.57065219       0.000
   0.00000001  0.55434787 -0.55434787       0.000
   0.00000000  0.53804350 -0.53804350       0.000
  -0.00000001  0.52173913 -0.52173913       0.000
   0.00000001  0.50543475 -0.50543475       0.000
   0.00000000  0.48913044 -0.48913044       0.000
   0.00000001  0.47282609 -0.47282609       0.000
  -0.00000001  0.45652175 -0.45652175       0.000
   0.00000000  0.44021738 -0.44021738       0.000
   0.00000001  0.42391303 -0.42391303       0.000
  -0.00000001  0.40760869 -0.40760869       0.000
   0.00000000  0.39130434 -0.39130434       0.000
   0.00000000  0.37500000 -0.37500000       0.000
  -0.00000001  0.35869569 -0.35869569       0.000
   0.00000001  0.34239131 -0.34239131       0.000
  -0.00000001  0.32608697 -0.32608697       0.000
   0.00000000  0.30978262 -0.30978262       0.000
   0.00000000  0.29347828 -0.29347828       0.000
   0.00000000  0.27717394 -0.27717394       0.000
   0.00000000  0.26086956 -0.26086956       0.000
  -0.00000001  0.24456525 -0.24456525       0.000
   0.00000001  0.22826087 -0.22826087       0.000
   0.00000000  0.21195650 -0.21195650       0.000
  -0.00000001  0.19565219 -0.19565219       0.000
   0.00000001  0.17934781 -0.17934781       0.000
   0.00000000  0.16304350 -0.16304350       0.000
  -0.00000001  0.14673913 -0.14673913       0.000
   0.00000001  0.13043475 -0.13043475       0.000
   0.00000000  0.11413044 -0.11413044       0.000
   0.00000000  0.09782606 -0.09782606       0.000
  -0.00000001  0.08152175 -0.08152175       0.000
   0.00000000  0.06521738 -0.06521738       0.000
   0.00000000  0.04891306 -0.04891306       0.000
  -0.00000001  0.03260869 -0.03260869       0.000
   0.00000001  0.01630431 -0.01630431       0.000
   0.00000000  0.00000000  0.00000000       0.000
   0.01136364  0.01136364 -0.01136364       0.000
   0.02272727  0.02272727 -0.02272727       0.000
   0.03409091  0.03409091 -0.03409091       0.000
   0.04545454  0.04545454 -0.04545454       0.000
   0.05681818  0.05681818 -0.05681818       0.000
   0.06818182  0.06818182 -0.06818182       0.000
   0.07954545  0.07954545 -0.07954545       0.000
   0.09090909  0.09090909 -0.09090909       0.000
   0.10227272  0.10227272 -0.10227272       0.000
   0.11363636  0.11363636 -0.11363636       0.000
   0.12499999  0.12499999 -0.12499999       0.000
   0.13636364  0.13636364 -0.13636364       0.000
   0.14772727  0.14772727 -0.14772727       0.000
   0.15909091  0.15909091 -0.15909091       0.000
   0.17045453  0.17045453 -0.17045453       0.000
   0.18181817  0.18181817 -0.18181817       0.000
   0.19318181  0.19318181 -0.19318181       0.000
   0.20454544  0.20454544 -0.20454544       0.000
   0.21590909  0.21590909 -0.21590909       0.000
   0.22727272  0.22727272 -0.22727272       0.000
   0.23863636  0.23863636 -0.23863636       0.000
   0.24999999  0.24999999 -0.24999999       0.000
   0.26136363  0.26136363 -0.26136363       0.000
   0.27272728  0.27272728 -0.27272728       0.000
   0.28409091  0.28409091 -0.28409091       0.000
   0.29545453  0.29545453 -0.29545453       0.000
   0.30681816  0.30681816 -0.30681816       0.000
   0.31818181  0.31818181 -0.31818181       0.000
   0.32954544  0.32954544 -0.32954544       0.000
   0.34090906  0.34090906 -0.34090906       0.000
   0.35227272  0.35227272 -0.35227272       0.000
   0.36363634  0.36363634 -0.36363634       0.000
   0.37500000  0.37500000 -0.37500000       0.000
   0.38636363  0.38636363 -0.38636363       0.000
   0.39772725  0.39772725 -0.39772725       0.000
   0.40909088  0.40909088 -0.40909088       0.000
   0.42045453  0.42045453 -0.42045453       0.000
   0.43181819  0.43181819 -0.43181819       0.000
   0.44318178  0.44318178 -0.44318178       0.000
   0.45454544  0.45454544 -0.45454544       0.000
   0.46590906  0.46590906 -0.46590906       0.000
   0.47727272  0.47727272 -0.47727272       0.000
   0.48863634  0.48863634 -0.48863634       0.000
   0.49999997  0.49999997 -0.49999997       0.000
 
 k-points in reciprocal lattice and weights: Automatically generated mesh: SCF=15, 0.
   0.00000000  0.00000000  0.00000000       0.005
   0.16666667  0.00000000  0.00000000       0.039
   0.33333333  0.00000000  0.00000000       0.039
   0.50000000  0.00000000  0.00000000       0.020
   0.16666667  0.16666667  0.00000000       0.029
   0.33333333  0.16666667  0.00000000       0.118
   0.50000000  0.16666667  0.00000000       0.118
  -0.33333333  0.16666667  0.00000000       0.118
  -0.16666667  0.16666667  0.00000000       0.059
   0.33333333  0.33333333  0.00000000       0.029
   0.50000000  0.33333333  0.00000000       0.118
  -0.33333333  0.33333333  0.00000000       0.059
   0.50000000  0.50000000  0.00000000       0.015
   0.50000000  0.33333333  0.16666667       0.118
  -0.33333333  0.33333333  0.16666667       0.118
   0.00000000  0.00000000  0.00000000       0.000
   0.01388889  0.00000000  0.01388889       0.000
   0.02777778  0.00000000  0.02777778       0.000
   0.04166666  0.00000000  0.04166666       0.000
   0.05555555  0.00000000  0.05555555       0.000
   0.06944444  0.00000000  0.06944444       0.000
   0.08333333  0.00000000  0.08333333       0.000
   0.09722222  0.00000000  0.09722222       0.000
   0.11111110  0.00000000  0.11111110       0.000
   0.12499999  0.00000000  0.12499999       0.000
   0.13888888  0.00000000  0.13888888       0.000
   0.15277778  0.00000000  0.15277778       0.000
   0.16666666  0.00000000  0.16666666       0.000
   0.18055554  0.00000000  0.18055554       0.000
   0.19444445  0.00000000  0.19444445       0.000
   0.20833333  0.00000000  0.20833333       0.000
   0.22222221  0.00000000  0.22222221       0.000
   0.23611109  0.00000000  0.23611109       0.000
   0.24999999  0.00000000  0.24999999       0.000
   0.26388890  0.00000000  0.26388890       0.000
   0.27777776  0.00000000  0.27777776       0.000
   0.29166666  0.00000000  0.29166666       0.000
   0.30555555  0.00000000  0.30555555       0.000
   0.31944445  0.00000000  0.31944445       0.000
   0.33333331  0.00000000  0.33333331       0.000
   0.34722221  0.00000000  0.34722221       0.000
   0.36111107  0.00000000  0.36111107       0.000
   0.37500000  0.00000000  0.37500000       0.000
   0.38888890  0.00000000  0.38888890       0.000
   0.40277776  0.00000000  0.40277776       0.000
   0.41666666  0.00000000  0.41666666       0.000
   0.43055552  0.00000000  0.43055552       0.000
   0.44444442  0.00000000  0.44444442       0.000
   0.45833334  0.00000000  0.45833334       0.000
   0.47222218  0.00000000  0.47222218       0.000
   0.48611110  0.00000000  0.48611110       0.000
   0.49999997  0.00000000  0.49999997       0.000
   0.49456522  0.01630435  0.51086956       0.000
   0.48913044  0.03260870  0.52173913       0.000
   0.48369566  0.04891304  0.53260869       0.000
   0.47826087  0.06521739  0.54347825       0.000
   0.47282609  0.08152174  0.55434781       0.000
   0.46739131  0.09782609  0.56521738       0.000
   0.46195653  0.11413044  0.57608694       0.000
   0.45652175  0.13043478  0.58695650       0.000
   0.45108697  0.14673914  0.59782606       0.000
   0.44565219  0.16304348  0.60869563       0.000
   0.44021741  0.17934784  0.61956519       0.000
   0.43478262  0.19565217  0.63043475       0.000
   0.42934781  0.21195652  0.64130437       0.000
   0.42391303  0.22826087  0.65217394       0.000
   0.41847825  0.24456522  0.66304350       0.000
   0.41304347  0.26086956  0.67391306       0.000
   0.40760869  0.27717391  0.68478262       0.000
   0.40217391  0.29347828  0.69565219       0.000
   0.39673913  0.30978259  0.70652175       0.000
   0.39130434  0.32608697  0.71739131       0.000
   0.38586956  0.34239131  0.72826087       0.000
   0.38043478  0.35869569  0.73913044       0.000
   0.37500000  0.37500000  0.75000000       0.000
   0.36684781  0.36684781  0.73369563       0.000
   0.35869566  0.35869566  0.71739131       0.000
   0.35054347  0.35054347  0.70108694       0.000
   0.34239131  0.34239131  0.68478262       0.000
   0.33423913  0.33423913  0.66847825       0.000
   0.32608697  0.32608697  0.65217394       0.000
   0.31793478  0.31793478  0.63586956       0.000
   0.30978262  0.30978262  0.61956525       0.000
   0.30163044  0.30163044  0.60326087       0.000
   0.29347825  0.29347825  0.58695650       0.000
   0.28532609  0.28532609  0.57065219       0.000
   0.27717394  0.27717394  0.55434787       0.000
   0.26902175  0.26902175  0.53804350       0.000
   0.26086956  0.26086956  0.52173913       0.000
   0.25271738  0.25271738  0.50543475       0.000
   0.24456522  0.24456522  0.48913044       0.000
   0.23641305  0.23641305  0.47282609       0.000
   0.22826087  0.22826087  0.45652175       0.000
   0.22010869  0.22010869  0.44021738       0.000
   0.21195652  0.21195652  0.42391303       0.000
   0.20380434  0.20380434  0.40760869       0.000
   0.19565217  0.19565217  0.39130434       0.000
   0.18750000  0.18750000  0.37500000       0.000
   0.17934784  0.17934784  0.35869569       0.000
   0.17119566  0.17119566  0.34239131       0.000
   0.16304348  0.16304348  0.32608697       0.000
   0.15489131  0.15489131  0.30978262       0.000
   0.14673914  0.14673914  0.29347828       0.000
   0.13858697  0.13858697  0.27717394       0.000
   0.13043478  0.13043478  0.26086956       0.000
   0.12228262  0.12228262  0.24456525       0.000
   0.11413044  0.11413044  0.22826087       0.000
   0.10597825  0.10597825  0.21195650       0.000
   0.09782609  0.09782609  0.19565219       0.000
   0.08967391  0.08967391  0.17934781       0.000
   0.08152175  0.08152175  0.16304350       0.000
   0.07336956  0.07336956  0.14673913       0.000
   0.06521738  0.06521738  0.13043475       0.000
   0.05706522  0.05706522  0.11413044       0.000
   0.04891303  0.04891303  0.09782606       0.000
   0.04076087  0.04076087  0.08152175       0.000
   0.03260869  0.03260869  0.06521738       0.000
   0.02445653  0.02445653  0.04891306       0.000
   0.01630434  0.01630434  0.03260869       0.000
   0.00815216  0.00815216  0.01630431       0.000
   0.00000000  0.00000000  0.00000000       0.000
   0.01136364  0.01136364  0.01136364       0.000
   0.02272727  0.02272727  0.02272727       0.000
   0.03409091  0.03409091  0.03409091       0.000
   0.04545454  0.04545454  0.04545454       0.000
   0.05681818  0.05681818  0.05681818       0.000
   0.06818182  0.06818182  0.06818182       0.000
   0.07954545  0.07954545  0.07954545       0.000
   0.09090909  0.09090909  0.09090909       0.000
   0.10227272  0.10227272  0.10227272       0.000
   0.11363636  0.11363636  0.11363636       0.000
   0.12499999  0.12499999  0.12499999       0.000
   0.13636364  0.13636364  0.13636364       0.000
   0.14772727  0.14772727  0.14772727       0.000
   0.15909091  0.15909091  0.15909091       0.000
   0.17045453  0.17045453  0.17045453       0.000
   0.18181817  0.18181817  0.18181817       0.000
   0.19318181  0.19318181  0.19318181       0.000
   0.20454544  0.20454544  0.20454544       0.000
   0.21590909  0.21590909  0.21590909       0.000
   0.22727272  0.22727272  0.22727272       0.000
   0.23863636  0.23863636  0.23863636       0.000
   0.24999999  0.24999999  0.24999999       0.000
   0.26136363  0.26136363  0.26136363       0.000
   0.27272728  0.27272728  0.27272728       0.000
   0.28409091  0.28409091  0.28409091       0.000
   0.29545453  0.29545453  0.29545453       0.000
   0.30681816  0.30681816  0.30681816       0.000
   0.31818181  0.31818181  0.31818181       0.000
   0.32954544  0.32954544  0.32954544       0.000
   0.34090906  0.34090906  0.34090906       0.000
   0.35227272  0.35227272  0.35227272       0.000
   0.36363634  0.36363634  0.36363634       0.000
   0.37500000  0.37500000  0.37500000       0.000
   0.38636363  0.38636363  0.38636363       0.000
   0.39772725  0.39772725  0.39772725       0.000
   0.40909088  0.40909088  0.40909088       0.000
   0.42045453  0.42045453  0.42045453       0.000
   0.43181819  0.43181819  0.43181819       0.000
   0.44318178  0.44318178  0.44318178       0.000
   0.45454544  0.45454544  0.45454544       0.000
   0.46590906  0.46590906  0.46590906       0.000
   0.47727272  0.47727272  0.47727272       0.000
   0.48863634  0.48863634  0.48863634       0.000
   0.49999997  0.49999997  0.49999997       0.000
 
 position of ions in fractional coordinates (direct lattice) 
   0.00000000  0.00000000  0.00000000
   0.25000000  0.25000000  0.25000000
 
 position of ions in cartesian coordinates  (Angst):
   0.00000000  0.00000000  0.00000000
   1.35775000  1.35775000 -1.35775000
 


--------------------------------------------------------------------------------------------------------


 k-point  1 :   0.0000 0.0000 0.0000  plane waves:     965
 k-point  2 :   0.1667 0.0000 0.0000  plane waves:     989
 k-point  3 :   0.3333 0.0000 0.0000  plane waves:    1008
 k-point  4 :   0.5000 0.0000 0.0000  plane waves:    1008
 k-point  5 :   0.1667 0.1667 0.0000  plane waves:     998
 k-point  6 :   0.3333 0.1667 0.0000  plane waves:    1011
 k-point  7 :   0.5000 0.1667 0.0000  plane waves:    1017
 k-point  8 :  -0.3333 0.1667 0.0000  plane waves:    1019
 k-point  9 :  -0.1667 0.1667 0.0000  plane waves:    1013
 k-point 10 :   0.3333 0.3333 0.0000  plane waves:    1018
 k-point 11 :   0.5000 0.3333 0.0000  plane waves:    1012
 k-point 12 :  -0.3333 0.3333 0.0000  plane waves:    1015
 k-point 13 :   0.5000 0.5000 0.0000  plane waves:    1034
 k-point 14 :   0.5000 0.3333 0.1667  plane waves:    1032
 k-point 15 :  -0.3333 0.3333 0.1667  plane waves:    1020
 k-point 16 :   0.0000 0.0000 0.0000  plane waves:     965
 k-point 17 :   0.0139 0.0000 0.0139  plane waves:     965
 k-point 18 :   0.0278 0.0000 0.0278  plane waves:     969
 k-point 19 :   0.0417 0.0000 0.0417  plane waves:     981
 k-point 20 :   0.0556 0.0000 0.0556  plane waves:     990
 k-point 21 :   0.0694 0.0000 0.0694  plane waves:     990
 k-point 22 :   0.0833 0.0000 0.0833  plane waves:    1002
 k-point 23 :   0.0972 0.0000 0.0972  plane waves:    1002
 k-point 24 :   0.1111 0.0000 0.1111  plane waves:    1002
 k-point 25 :   0.1250 0.0000 0.1250  plane waves:     994
 k-point 26 :   0.1389 0.0000 0.1389  plane waves:     994
 k-point 27 :   0.1528 0.0000 0.1528  plane waves:     998
 k-point 28 :   0.1667 0.0000 0.1667  plane waves:     998
 k-point 29 :   0.1806 0.0000 0.1806  plane waves:     998
 k-point 30 :   0.1944 0.0000 0.1944  plane waves:     998
 k-point 31 :   0.2083 0.0000 0.2083  plane waves:     998
 k-point 32 :   0.2222 0.0000 0.2222  plane waves:     998
 k-point 33 :   0.2361 0.0000 0.2361  plane waves:     998
 k-point 34 :   0.2500 0.0000 0.2500  plane waves:     998
 k-point 35 :   0.2639 0.0000 0.2639  plane waves:    1018
 k-point 36 :   0.2778 0.0000 0.2778  plane waves:    1018
 k-point 37 :   0.2917 0.0000 0.2917  plane waves:    1018
 k-point 38 :   0.3056 0.0000 0.3056  plane waves:    1018
 k-point 39 :   0.3194 0.0000 0.3194  plane waves:    1018
 k-point 40 :   0.3333 0.0000 0.3333  plane waves:    1018
 k-point 41 :   0.3472 0.0000 0.3472  plane waves:    1026
 k-point 42 :   0.3611 0.0000 0.3611  plane waves:    1026
 k-point 43 :   0.3750 0.0000 0.3750  plane waves:    1026
 k-point 44 :   0.3889 0.0000 0.3889  plane waves:    1026
 k-point 45 :   0.4028 0.0000 0.4028  plane waves:    1018
 k-point 46 :   0.4167 0.0000 0.4167  plane waves:    1018
 k-point 47 :   0.4306 0.0000 0.4306  plane waves:    1010
 k-point 48 :   0.4444 0.0000 0.4444  plane waves:    1010
 k-point 49 :   0.4583 0.0000 0.4583  plane waves:    1014
 k-point 50 :   0.4722 0.0000 0.4722  plane waves:    1018
 k-point 51 :   0.4861 0.0000 0.4861  plane waves:    1018
 k-point 52 :   0.5000 0.0000 0.5000  plane waves:    1034
 k-point 53 :   0.4946 0.0163 0.5109  plane waves:    1020
 k-point 54 :   0.4891 0.0326 0.5217  plane waves:    1020
 k-point 55 :   0.4837 0.0489 0.5326  plane waves:    1013
 k-point 56 :   0.4783 0.0652 0.5435  plane waves:    1011
 k-point 57 :   0.4728 0.0815 0.5543  plane waves:    1013
 k-point 58 :   0.4674 0.0978 0.5652  plane waves:    1017
 k-point 59 :   0.4620 0.1141 0.5761  plane waves:    1015
 k-point 60 :   0.4565 0.1304 0.5870  plane waves:    1015
 k-point 61 :   0.4511 0.1467 0.5978  plane waves:    1019
 k-point 62 :   0.4457 0.1630 0.6087  plane waves:    1023
 k-point 63 :   0.4402 0.1793 0.6196  plane waves:    1025
 k-point 64 :   0.4348 0.1957 0.6304  plane waves:    1023
 k-point 65 :   0.4293 0.2120 0.6413  plane waves:    1025
 k-point 66 :   0.4239 0.2283 0.6522  plane waves:    1025
 k-point 67 :   0.4185 0.2446 0.6630  plane waves:    1023
 k-point 68 :   0.4130 0.2609 0.6739  plane waves:    1020
 k-point 69 :   0.4076 0.2772 0.6848  plane waves:    1020
 k-point 70 :   0.4022 0.2935 0.6957  plane waves:    1022
 k-point 71 :   0.3967 0.3098 0.7065  plane waves:    1016
 k-point 72 :   0.3913 0.3261 0.7174  plane waves:    1017
 k-point 73 :   0.3859 0.3424 0.7283  plane waves:    1012
 k-point 74 :   0.3804 0.3587 0.7391  plane waves:    1014
 k-point 75 :   0.3750 0.3750 0.7500  plane waves:    1011
 k-point 76 :   0.3668 0.3668 0.7337  plane waves:    1015
 k-point 77 :   0.3587 0.3587 0.7174  plane waves:    1015
 k-point 78 :   0.3505 0.3505 0.7011  plane waves:    1025
 k-point 79 :   0.3424 0.3424 0.6848  plane waves:    1025
 k-point 80 :   0.3342 0.3342 0.6685  plane waves:    1015
 k-point 81 :   0.3261 0.3261 0.6522  plane waves:    1019
 k-point 82 :   0.3179 0.3179 0.6359  plane waves:    1019
 k-point 83 :   0.3098 0.3098 0.6196  plane waves:    1015
 k-point 84 :   0.3016 0.3016 0.6033  plane waves:    1011
 k-point 85 :   0.2935 0.2935 0.5870  plane waves:    1015
 k-point 86 :   0.2853 0.2853 0.5707  plane waves:    1015
 k-point 87 :   0.2772 0.2772 0.5543  plane waves:    1019
 k-point 88 :   0.2690 0.2690 0.5380  plane waves:    1019
 k-point 89 :   0.2609 0.2609 0.5217  plane waves:    1019
 k-point 90 :   0.2527 0.2527 0.5054  plane waves:    1019
 k-point 91 :   0.2446 0.2446 0.4891  plane waves:    1019
 k-point 92 :   0.2364 0.2364 0.4728  plane waves:    1023
 k-point 93 :   0.2283 0.2283 0.4565  plane waves:    1015
 k-point 94 :   0.2201 0.2201 0.4402  plane waves:    1015
 k-point 95 :   0.2120 0.2120 0.4239  plane waves:    1009
 k-point 96 :   0.2038 0.2038 0.4076  plane waves:    1013
 k-point 97 :   0.1957 0.1957 0.3913  plane waves:    1015
 k-point 98 :   0.1875 0.1875 0.3750  plane waves:    1009
 k-point 99 :   0.1793 0.1793 0.3587  plane waves:    1009
 k-point ** :   0.1712 0.1712 0.3424  plane waves:    1009
 k-point ** :   0.1630 0.1630 0.3261  plane waves:    1007
 k-point ** :   0.1549 0.1549 0.3098  plane waves:    1007
 k-point ** :   0.1467 0.1467 0.2935  plane waves:     999
 k-point ** :   0.1386 0.1386 0.2772  plane waves:    1003
 k-point ** :   0.1304 0.1304 0.2609  plane waves:     999
 k-point ** :   0.1223 0.1223 0.2446  plane waves:     997
 k-point ** :   0.1141 0.1141 0.2283  plane waves:    1001
 k-point ** :   0.1060 0.1060 0.2120  plane waves:     997
 k-point ** :   0.0978 0.0978 0.1957  plane waves:     997
 k-point ** :   0.0897 0.0897 0.1793  plane waves:     997
 k-point ** :   0.0815 0.0815 0.1630  plane waves:     993
 k-point ** :   0.0734 0.0734 0.1467  plane waves:     993
 k-point ** :   0.0652 0.0652 0.1304  plane waves:     993
 k-point ** :   0.0571 0.0571 0.1141  plane waves:     991
 k-point ** :   0.0489 0.0489 0.0978  plane waves:     989
 k-point ** :   0.0408 0.0408 0.0815  plane waves:     993
 k-point ** :   0.0326 0.0326 0.0652  plane waves:     981
 k-point ** :   0.0245 0.0245 0.0489  plane waves:     977
 k-point ** :   0.0163 0.0163 0.0326  plane waves:     965
 k-point ** :   0.0082 0.0082 0.0163  plane waves:     965
 k-point ** :   0.0000 0.0000 0.0000  plane waves:     965
 k-point ** :   0.0114 0.0114 0.0114  plane waves:     965
 k-point ** :   0.0227 0.0227 0.0227  plane waves:     965
 k-point ** :   0.0341 0.0341 0.0341  plane waves:     974
 k-point ** :   0.0455 0.0455 0.0455  plane waves:     977
 k-point ** :   0.0568 0.0568 0.0568  plane waves:     983
 k-point ** :   0.0682 0.0682 0.0682  plane waves:     980
 k-point ** :   0.0795 0.0795 0.0795  plane waves:     992
 k-point ** :   0.0909 0.0909 0.0909  plane waves:     992
 k-point ** :   0.1023 0.1023 0.1023  plane waves:     995
 k-point ** :   0.1136 0.1136 0.1136  plane waves:     995
 k-point ** :   0.1250 0.1250 0.1250  plane waves:     995
 k-point ** :   0.1364 0.1364 0.1364  plane waves:     989
 k-point ** :   0.1477 0.1477 0.1477  plane waves:     989
 k-point ** :   0.1591 0.1591 0.1591  plane waves:     989
 k-point ** :   0.1705 0.1705 0.1705  plane waves:     989
 k-point ** :   0.1818 0.1818 0.1818  plane waves:     995
 k-point ** :   0.1932 0.1932 0.1932  plane waves:    1001
 k-point ** :   0.2045 0.2045 0.2045  plane waves:    1001
 k-point ** :   0.2159 0.2159 0.2159  plane waves:    1001
 k-point ** :   0.2273 0.2273 0.2273  plane waves:    1001
 k-point ** :   0.2386 0.2386 0.2386  plane waves:    1001
 k-point ** :   0.2500 0.2500 0.2500  plane waves:    1001
 k-point ** :   0.2614 0.2614 0.2614  plane waves:    1013
 k-point ** :   0.2727 0.2727 0.2727  plane waves:    1010
 k-point ** :   0.2841 0.2841 0.2841  plane waves:    1011
 k-point ** :   0.2955 0.2955 0.2955  plane waves:    1011
 k-point ** :   0.3068 0.3068 0.3068  plane waves:    1008
 k-point ** :   0.3182 0.3182 0.3182  plane waves:    1008
 k-point ** :   0.3295 0.3295 0.3295  plane waves:    1008
 k-point ** :   0.3409 0.3409 0.3409  plane waves:    1008
 k-point ** :   0.3523 0.3523 0.3523  plane waves:    1008
 k-point ** :   0.3636 0.3636 0.3636  plane waves:    1014
 k-point ** :   0.3750 0.3750 0.3750  plane waves:    1017
 k-point ** :   0.3864 0.3864 0.3864  plane waves:    1017
 k-point ** :   0.3977 0.3977 0.3977  plane waves:    1017
 k-point ** :   0.4091 0.4091 0.4091  plane waves:    1023
 k-point ** :   0.4205 0.4205 0.4205  plane waves:    1023
 k-point ** :   0.4318 0.4318 0.4318  plane waves:    1023
 k-point ** :   0.4432 0.4432 0.4432  plane waves:    1026
 k-point ** :   0.4545 0.4545 0.4545  plane waves:    1026
 k-point ** :   0.4659 0.4659 0.4659  plane waves:    1020
 k-point ** :   0.4773 0.4773 0.4773  plane waves:    1020
 k-point ** :   0.4886 0.4886 0.4886  plane waves:    1008
 k-point ** :   0.5000 0.5000 0.5000  plane waves:    1008

 maximum and minimum number of plane-waves per node :       191      153

 maximum number of plane-waves:      1034
 maximum index in each direction: 
   IXMAX=    7   IYMAX=    7   IZMAX=    7
   IXMIN=   -7   IYMIN=   -7   IZMIN=   -7

 WARNING: aliasing errors must be expected set NGX to  30 to avoid them
 WARNING: aliasing errors must be expected set NGY to  30 to avoid them
 WARNING: aliasing errors must be expected set NGZ to  30 to avoid them
 aliasing errors are usually negligible using standard VASP settings
 and one can safely disregard these warnings

 parallel 3D FFT for wavefunctions:
    minimum data exchange during FFTs selected (reduces bandwidth)
 parallel 3D FFT for charge:
    minimum data exchange during FFTs selected (reduces bandwidth)


 FFT grid for exact exchange (Hartree Fock) 
  NGX = 16; NGY = 16; NGZ = 16

 
 Radii for the augmentation spheres in the non-local exchange
 for species   1 augmentation radius   1.335 (default was   0.989)
       energy cutoff for augmentation   2000.0

 real space projection operators:
  total allocation   :        134.86 KBytes
  max/ min on nodes  :         27.70         13.92

 Maximum index for augmentation-charges in exchange          197
  SETUP_FOCK is finished

 total amount of memory used by VASP on root node    37209. kBytes
========================================================================

   base      :      30000. kBytes
   nonl-proj :       2372. kBytes
   fftplans  :        473. kBytes
   grid      :        621. kBytes
   one-center:          3. kBytes
   HF        :          4. kBytes
   nonlr-proj:         64. kBytes
   wavefun   :       3672. kBytes
 
     INWAV:  cpu time    0.0000: real time    0.0003
 Broyden mixing: mesh for mixing (old mesh)
   NGX = 13   NGY = 13   NGZ = 13
  (NGX  = 56   NGY  = 56   NGZ  = 56)
  gives a total of   2197 points

 initial charge density was supplied:
 charge density of overlapping atoms calculated
 number of electron       8.0000000 magnetization 
 charge density for first step will be calculated from the start-wavefunctions


--------------------------------------------------------------------------------------------------------


 Maximum index for augmentation-charges         1360 (set IRDMAX)


--------------------------------------------------------------------------------------------------------


 First call to EWALD:  gamma=   0.518
 Maximum number of real-space cells 3x 3x 3
 Maximum number of reciprocal cells 3x 3x 3

 FEWALD executed in parallel
    FEWALD:  cpu time    0.0040: real time    0.0026


----------------------------------------- Iteration    1(   1)  ---------------------------------------


    POTLOK:  cpu time    0.0200: real time    0.0190
    SETDIJ:  cpu time    0.0680: real time    0.0674
    TRIAL :  cpu time    0.1560: real time    0.1558
    CORREC:  cpu time    0.0000: real time    0.0008
    --------------------------------------------
      LOOP:  cpu time    0.2440: real time    0.2471

 eigenvalue-minimisations  :  4984
 total energy-change (2. order) : 0.2089449E+03  (-0.1980786E+04)
 number of electron       8.0000000 magnetization 
 augmentation part        8.0000000 magnetization 

 Free energy of the ion-electron system (eV)
  ---------------------------------------------------
  alpha Z        PSCENC =         3.36228930
  Ewald energy   TEWEN  =      -228.52143995
  -Hartree energ DENC   =       -11.00937461
  -exchange      EXHF   =         0.00000000
  -V(xc)+E(xc)   XCENC  =       -14.92076487
  PAW double counting   =       171.67484864     -143.81433621
  entropy T*S    EENTRO =        -0.00017624
  eigenvalues    EBANDS =       228.14638799
  atomic energy  EATOM  =       204.02745786
  ---------------------------------------------------
  free energy    TOTEN  =       208.94489191 eV

  energy without entropy =      208.94506814  energy(sigma->0) =      208.94498002
  exchange ACFDT corr.  =         0.00000000  see jH, gK, PRB 81, 115126


--------------------------------------------------------------------------------------------------------




----------------------------------------- Iteration    1(   2)  ---------------------------------------


    TRIAL :  cpu time    0.1200: real time    0.1218
    CORREC:  cpu time    0.0040: real time    0.0008
    --------------------------------------------
      LOOP:  cpu time    0.1240: real time    0.1298

 eigenvalue-minimisations  :  4128
 total energy-change (2. order) :-0.2021269E+03  (-0.1948135E+03)
 number of electron       8.0000000 magnetization 
 augmentation part        8.0000000 magnetization 

 Free energy of the ion-electron system (eV)
  ---------------------------------------------------
  alpha Z        PSCENC =         3.36228930
  Ewald energy   TEWEN  =      -228.52143995
  -Hartree energ DENC   =       -11.00937461
  -exchange      EXHF   =         0.00000000
  -V(xc)+E(xc)   XCENC  =       -14.92076487
  PAW double counting   =       171.67484864     -143.81433621
  entropy T*S    EENTRO =        -0.00050167
  eigenvalues    EBANDS =        26.01982945
  atomic energy  EATOM  =       204.02745786
  ---------------------------------------------------
  free energy    TOTEN  =         6.81800793 eV

  energy without entropy =        6.81850960  energy(sigma->0) =        6.81825876
  exchange ACFDT corr.  =         0.00000000  see jH, gK, PRB 81, 115126


--------------------------------------------------------------------------------------------------------




----------------------------------------- Iteration    1(   3)  ---------------------------------------


    TRIAL :  cpu time    0.1080: real time    0.1096
    CORREC:  cpu time    0.0000: real time    0.0003
    --------------------------------------------
      LOOP:  cpu time    0.1080: real time    0.1167

 eigenvalue-minimisations  :  3888
 total energy-change (2. order) :-0.8120735E+01  (-0.7403394E+01)
 number of electron       8.0000000 magnetization 
 augmentation part        8.0000000 magnetization 

 Free energy of the ion-electron system (eV)
  ---------------------------------------------------
  alpha Z        PSCENC =         3.36228930
  Ewald energy   TEWEN  =      -228.52143995
  -Hartree energ DENC   =       -11.00937461
  -exchange      EXHF   =         0.00000000
  -V(xc)+E(xc)   XCENC  =       -14.92076487
  PAW double counting   =       171.67484864     -143.81433621
  entropy T*S    EENTRO =        -0.00000000
  eigenvalues    EBANDS =        17.89859325
  atomic energy  EATOM  =       204.02745786
  ---------------------------------------------------
  free energy    TOTEN  =        -1.30272660 eV

[...]
      4       5.2418      2.00000
      5       8.7909      0.00000
      6       9.1904      0.00000
      7       9.1904      0.00000
      8      10.9617      0.00000

 k-point   132 :       0.1250    0.1250    0.1250
  band No.  band energies     occupation 
      1      -7.5698      2.00000
      2       3.8073      2.00000
      3       5.1970      2.00000
      4       5.1970      2.00000
      5       8.7550      0.00000
      6       9.2559      0.00000
      7       9.2559      0.00000
      8      11.1649      0.00000

 k-point   133 :       0.1364    0.1364    0.1364
  band No.  band energies     occupation 
      1      -7.5270      2.00000
      2       3.5748      2.00000
      3       5.1506      2.00000
      4       5.1506      2.00000
      5       8.7153      0.00000
      6       9.3224      0.00000
      7       9.3224      0.00000
      8      11.3734      0.00000

 k-point   134 :       0.1477    0.1477    0.1477
  band No.  band energies     occupation 
      1      -7.4807      2.00000
      2       3.3391      2.00000
      3       5.1032      2.00000
      4       5.1032      2.00000
      5       8.6728      0.00000
      6       9.3888      0.00000
      7       9.3888      0.00000
      8      11.5854      0.00000

 k-point   135 :       0.1591    0.1591    0.1591
  band No.  band energies     occupation 
      1      -7.4307      2.00000
      2       3.1015      2.00000
      3       5.0550      2.00000
      4       5.0550      2.00000
      5       8.6281      0.00000
      6       9.4540      0.00000
      7       9.4540      0.00000
      8      11.7995      0.00000

 k-point   136 :       0.1705    0.1705    0.1705
  band No.  band energies     occupation 
      1      -7.3773      2.00000
      2       2.8627      2.00000
      3       5.0065      2.00000
      4       5.0065      2.00000
      5       8.5820      0.00000
      6       9.5169      0.00000
      7       9.5169      0.00000
      8      12.0148      0.00000

 k-point   137 :       0.1818    0.1818    0.1818
  band No.  band energies     occupation 
      1      -7.3203      2.00000
      2       2.6235      2.00000
      3       4.9579      2.00000
      4       4.9579      2.00000
      5       8.5350      0.00000
      6       9.5764      0.00000
      7       9.5764      0.00000
      8      12.2304      0.00000

 k-point   138 :       0.1932    0.1932    0.1932
  band No.  band energies     occupation 
      1      -7.2599      2.00000
      2       2.3846      2.00000
      3       4.9096      2.00000
      4       4.9096      2.00000
      5       8.4875      0.00000
      6       9.6314      0.00000
      7       9.6314      0.00000
      8      12.4454      0.00000

 k-point   139 :       0.2045    0.2045    0.2045
  band No.  band energies     occupation 
      1      -7.1961      2.00000
      2       2.1464      2.00000
      3       4.8617      2.00000
      4       4.8617      2.00000
      5       8.4401      0.00000
      6       9.6811      0.00000
      7       9.6811      0.00000
      8      12.6590      0.00000

 k-point   140 :       0.2159    0.2159    0.2159
  band No.  band energies     occupation 
      1      -7.1290      2.00000
      2       1.9094      2.00000
      3       4.8146      2.00000
      4       4.8146      2.00000
      5       8.3930      0.00000
      6       9.7247      0.00000
      7       9.7247      0.00000
      8      12.8706      0.00000

 k-point   141 :       0.2273    0.2273    0.2273
  band No.  band energies     occupation 
      1      -7.0586      2.00000
      2       1.6741      2.00000
      3       4.7684      2.00000
      4       4.7684      2.00000
      5       8.3464      0.00000
      6       9.7618      0.00000
      7       9.7618      0.00000
      8      13.0792      0.00000

 k-point   142 :       0.2386    0.2386    0.2386
  band No.  band energies     occupation 
      1      -6.9851      2.00000
      2       1.4408      2.00000
      3       4.7232      2.00000
      4       4.7232      2.00000
      5       8.3007      0.00000
      6       9.7920      0.00000
      7       9.7920      0.00000
      8      13.2833      0.00000

 k-point   143 :       0.2500    0.2500    0.2500
  band No.  band energies     occupation 
      1      -6.9084      2.00000
      2       1.2100      2.00000
      3       4.6793      2.00000
      4       4.6793      2.00000
      5       8.2561      0.00000
      6       9.8153      0.00000
      7       9.8153      0.00000
      8      13.4818      0.00000

 k-point   144 :       0.2614    0.2614    0.2614
  band No.  band energies     occupation 
      1      -6.8288      2.00000
      2       0.9819      2.00000
      3       4.6367      2.00000
      4       4.6367      2.00000
      5       8.2127      0.00000
      6       9.8317      0.00000
      7       9.8317      0.00000
      8      13.6718      0.00000

 k-point   145 :       0.2727    0.2727    0.2727
  band No.  band energies     occupation 
      1      -6.7464      2.00000
      2       0.7570      2.00000
      3       4.5956      2.00000
      4       4.5956      2.00000
      5       8.1707      0.00000
      6       9.8417      0.00000
      7       9.8417      0.00000
      8      13.8491      0.00000

 k-point   146 :       0.2841    0.2841    0.2841
  band No.  band energies     occupation 
      1      -6.6612      2.00000
      2       0.5354      2.00000
      3       4.5561      2.00000
      4       4.5561      2.00000
      5       8.1302      0.00000
      6       9.8459      0.00000
      7       9.8459      0.00000
      8      13.9672      0.00000

 k-point   147 :       0.2955    0.2955    0.2955
  band No.  band energies     occupation 
      1      -6.5736      2.00000
      2       0.3177      2.00000
      3       4.5183      2.00000
      4       4.5183      2.00000
      5       8.0914      0.00000
      6       9.8447      0.00000
      7       9.8447      0.00000
      8      14.0807      0.00000

 k-point   148 :       0.3068    0.3068    0.3068
  band No.  band energies     occupation 
      1      -6.4836      2.00000
      2       0.1040      2.00000
      3       4.4822      2.00000
      4       4.4822      2.00000
      5       8.0543      0.00000
      6       9.8390      0.00000
      7       9.8390      0.00000
      8      14.2092      0.00000

 k-point   149 :       0.3182    0.3182    0.3182
  band No.  band energies     occupation 
      1      -6.3916      2.00000
      2      -0.1052      2.00000
      3       4.4479      2.00000
      4       4.4479      2.00000
      5       8.0190      0.00000
      6       9.8295      0.00000
      7       9.8295      0.00000
      8      14.3083      0.00000

 k-point   150 :       0.3295    0.3295    0.3295
  band No.  band energies     occupation 
      1      -6.2978      2.00000
      2      -0.3095      2.00000
      3       4.4155      2.00000
      4       4.4155      2.00000
      5       7.9856      0.00000
      6       9.8170      0.00000
      7       9.8170      0.00000
      8      14.3454      0.00000

 k-point   151 :       0.3409    0.3409    0.3409
  band No.  band energies     occupation 
      1      -6.2026      2.00000
      2      -0.5085      2.00000
      3       4.3850      2.00000
      4       4.3850      2.00000
      5       7.9542      0.00000
      6       9.8021      0.00000
      7       9.8021      0.00000
      8      14.3482      0.00000

 k-point   152 :       0.3523    0.3523    0.3523
  band No.  band energies     occupation 
      1      -6.1064      2.00000
      2      -0.7017      2.00000
      3       4.3565      2.00000
      4       4.3564      2.00000
      5       7.9248      0.00000
      6       9.7856      0.00000
      7       9.7856      0.00000
      8      14.3398      0.00000

 k-point   153 :       0.3636    0.3636    0.3636
  band No.  band energies     occupation 
      1      -6.0097      2.00000
      2      -0.8884      2.00000
      3       4.3299      2.00000
      4       4.3299      2.00000
      5       7.8974      0.00000
      6       9.7681      0.00000
      7       9.7681      0.00000
      8      14.3218      0.00000

 k-point   154 :       0.3750    0.3750    0.3750
  band No.  band energies     occupation 
      1      -5.9132      2.00000
      2      -1.0680      2.00000
      3       4.3054      2.00000
      4       4.3054      2.00000
      5       7.8721      0.00000
      6       9.7502      0.00000
      7       9.7502      0.00000
      8      14.2977      0.00000

 k-point   155 :       0.3864    0.3864    0.3864
  band No.  band energies     occupation 
      1      -5.8175      2.00000
      2      -1.2397      2.00000
      3       4.2829      2.00000
      4       4.2829      2.00000
      5       7.8489      0.00000
      6       9.7323      0.00000
      7       9.7323      0.00000
      8      14.2709      0.00000

 k-point   156 :       0.3977    0.3977    0.3977
  band No.  band energies     occupation 
      1      -5.7236      2.00000
      2      -1.4026      2.00000
      3       4.2626      2.00000
      4       4.2626      2.00000
      5       7.8279      0.00000
      6       9.7149      0.00000
      7       9.7149      0.00000
      8      14.2436      0.00000

 k-point   157 :       0.4091    0.4091    0.4091
  band No.  band energies     occupation 
      1      -5.6325      2.00000
      2      -1.5554      2.00000
      3       4.2443      2.00000
      4       4.2443      2.00000
      5       7.8090      0.00000
      6       9.6984      0.00000
      7       9.6984      0.00000
      8      14.2174      0.00000

 k-point   158 :       0.4205    0.4205    0.4205
  band No.  band energies     occupation 
      1      -5.5456      2.00000
      2      -1.6970      2.00000
      3       4.2281      2.00000
      4       4.2281      2.00000
      5       7.7924      0.00000
      6       9.6831      0.00000
      7       9.6831      0.00000
      8      14.1924      0.00000

 k-point   159 :       0.4318    0.4318    0.4318
  band No.  band energies     occupation 
      1      -5.4643      2.00000
      2      -1.8257      2.00000
      3       4.2141      2.00000
      4       4.2141      2.00000
      5       7.7779      0.00000
      6       9.6693      0.00000
      7       9.6693      0.00000
      8      14.1700      0.00000

 k-point   160 :       0.4432    0.4432    0.4432
  band No.  band energies     occupation 
      1      -5.3905      2.00000
      2      -1.9397      2.00000
      3       4.2022      2.00000
      4       4.2022      2.00000
      5       7.7656      0.00000
      6       9.6572      0.00000
      7       9.6572      0.00000
      8      14.1505      0.00000

 k-point   161 :       0.4545    0.4545    0.4545
  band No.  band energies     occupation 
      1      -5.3260      2.00000
      2      -2.0370      2.00000
      3       4.1925      2.00000
      4       4.1925      2.00000
      5       7.7556      0.00000
      6       9.6471      0.00000
      7       9.6471      0.00000
      8      14.1341      0.00000

 k-point   162 :       0.4659    0.4659    0.4659
  band No.  band energies     occupation 
      1      -5.2730      2.00000
      2      -2.1157      2.00000
      3       4.1849      2.00000
      4       4.1849      2.00000
      5       7.7477      0.00000
      6       9.6391      0.00000
      7       9.6391      0.00000
      8      14.1212      0.00000

 k-point   163 :       0.4773    0.4773    0.4773
  band No.  band energies     occupation 
      1      -5.2333      2.00000
      2      -2.1736      2.00000
      3       4.1795      2.00000
      4       4.1795      2.00000
      5       7.7421      0.00000
      6       9.6333      0.00000
      7       9.6333      0.00000
      8      14.1118      0.00000

 k-point   164 :       0.4886    0.4886    0.4886
  band No.  band energies     occupation 
      1      -5.2087      2.00000
      2      -2.2092      2.00000
      3       4.1762      2.00000
      4       4.1762      2.00000
      5       7.7388      0.00000
      6       9.6298      0.00000
      7       9.6298      0.00000
      8      14.1062      0.00000

 k-point   165 :       0.5000    0.5000    0.5000
  band No.  band energies     occupation 
      1      -5.2004      2.00000
      2      -2.2211      2.00000
      3       4.1752      2.00000
      4       4.1752      2.00000
      5       7.7377      0.00000
      6       9.6286      0.00000
      7       9.6286      0.00000
      8      14.1043      0.00000


--------------------------------------------------------------------------------------------------------


 soft charge-density along one line, spin component           1
         0         1         2         3         4         5         6         7         8         9
 total charge-density along one line
 
 pseudopotential strength for first ion, spin component:           1
 17.851  24.907   0.000  -0.000   0.000   0.000  -0.000   0.000
 24.907  34.756   0.000  -0.000   0.000   0.000  -0.000   0.000
  0.000   0.000   4.076   0.000  -0.000   7.598   0.000  -0.000
 -0.000  -0.000   0.000   4.076   0.000   0.000   7.598   0.000
  0.000   0.000  -0.000   0.000   4.076  -0.000   0.000   7.598
  0.000   0.000   7.598   0.000  -0.000  14.174   0.000  -0.000
 -0.000  -0.000   0.000   7.598   0.000   0.000  14.174   0.000
  0.000   0.000  -0.000   0.000   7.598  -0.000   0.000  14.174
 total augmentation occupancy for first ion, spin component:           1
 11.034  -5.196   0.000   0.000   0.000   0.000  -0.000   0.000
 -5.196   2.499   0.000   0.000   0.000  -0.000   0.000  -0.000
  0.000   0.000   3.934   0.000  -0.000  -1.044   0.000  -0.000
  0.000   0.000  -0.000   3.934   0.000   0.000  -1.044   0.000
 -0.000   0.000   0.000  -0.000   3.934   0.000   0.000  -1.044
  0.000   0.000  -1.044   0.000  -0.000   0.283  -0.000   0.000
 -0.000   0.000   0.000  -1.044   0.000   0.000   0.283   0.000
  0.000   0.000   0.000   0.000  -1.044  -0.000  -0.000   0.283


------------------------ aborting loop because EDIFF is reached ----------------------------------------


 


 total charge     
 
# of ion     s       p       d       tot
----------------------------------------
  1        0.753   0.972   0.000   1.725
  2        0.753   0.972   0.000   1.725
------------------------------------------------
tot        1.507   1.944   0.000   3.451
 
    FORLOC:  cpu time    0.0080: real time    0.0086
    FORHF :  cpu time   11.6567: real time   11.6610
    FORNL :  cpu time    0.0040: real time    0.0053
    STRESS:  cpu time    0.0600: real time    0.0574
    FORCOR:  cpu time    0.0160: real time    0.0190
    OFIELD:  cpu time    0.0000: real time    0.0001

  FORCE on cell =-STRESS in cart. coord.  units (eV):
  Direction    XX          YY          ZZ          XY          YZ          ZX
  --------------------------------------------------------------------------------------
  Alpha Z     3.36229     3.36229     3.36229
  Ewald     -76.17385   -76.17385   -76.17385     0.00000     0.00000    -0.00000
  Hartree     5.05799     5.05799     5.05799     0.00000    -0.00000    -0.00000
  E(xc)     -19.65143   -19.65143   -19.65143     0.00000    -0.00000    -0.00000
  Local     -29.22459   -29.22459   -29.22459     0.00001    -0.00001    -0.00001
  n-local    70.64031    75.93210    75.18300    -1.16342    -2.37031    -0.76789
  augment   -10.65096   -10.65096   -10.65096    -0.00001     0.00001     0.00001
  Kinetic    55.07394    57.18276    58.59644    -1.13693    -3.67179    -1.06870
  Fock            NaN         NaN         NaN         NaN         NaN         NaN
  -------------------------------------------------------------------------------------
  Total           NaN         NaN         NaN         NaN         NaN         NaN
  in kB           NaN         NaN         NaN         NaN         NaN         NaN
  external pressure =         NaN kB  Pullay stress =        0.00 kB


 VOLUME and BASIS-vectors are now :
 -----------------------------------------------------------------------------
  energy-cutoff  :      500.00
  volume of cell :       40.05
      direct lattice vectors                 reciprocal lattice vectors
     2.715500000  2.715500000  0.000000000     0.184128153  0.184128153  0.184128153
     2.715500000  0.000000000 -2.715500000     0.184128153 -0.184128153 -0.184128153
     0.000000000  2.715500000 -2.715500000    -0.184128153  0.184128153 -0.184128153

  length of vectors
     3.840296929  3.840296929  3.840296929     0.318919316  0.318919316  0.318919316


 FORCES acting on ions:
    Electron-Ion                     Ewald-Force                    Non-Local-Force
 -----------------------------------------------------------------------------------------------
   -.757E-08 -.475E-08 0.475E-08   -.923E-14 -.515E-14 0.930E-14   0.156E-16 0.208E-16 -.139E-16
   0.757E-08 0.475E-08 -.475E-08   0.907E-14 0.563E-14 -.939E-14   -.156E-16 -.208E-16 -.694E-17
 -----------------------------------------------------------------------------------------------
   -.150E-06 -.169E-06 0.177E-06   -.164E-15 0.474E-15 -.970E-16   0.000E+00 0.000E+00 -.208E-16
 
 
 POSITION                                       TOTAL-FORCE (eV/Angst)
 -----------------------------------------------------------------------------------
      0.00000      0.00000      0.00000              NaN           NaN           NaN
      1.35775      1.35775     -1.35775              NaN           NaN           NaN
 -----------------------------------------------------------------------------------
    total drift:                                     NaN           NaN           NaN


--------------------------------------------------------------------------------------------------------



  FREE ENERGIE OF THE ION-ELECTRON SYSTEM (eV)
  ---------------------------------------------------
  free  energy   TOTEN  =       -12.22100391 eV

  energy  without entropy=      -12.22100391  energy(sigma->0) =      -12.22100391
 


--------------------------------------------------------------------------------------------------------


    POTLOK:  cpu time    0.0920: real time    0.0890


--------------------------------------------------------------------------------------------------------




--------------------------------------------------------------------------------------------------------


  
 reached required accuracy - stopping structural energy minimisation
 writing wavefunctions
     LOOP+:  cpu time  103.8105: real time  104.5793
    4ORBIT:  cpu time    0.0000: real time    0.0000
 


 total charge     
 
# of ion     s       p       d       tot
----------------------------------------
  1        0.753   0.972   0.000   1.725
  2        0.753   0.972   0.000   1.725
------------------------------------------------
tot        1.507   1.944   0.000   3.451
 

 total amount of memory used by VASP on root node    37506. kBytes
========================================================================

   base      :      30000. kBytes
   nonl-proj :       2372. kBytes
   fftplans  :        473. kBytes
   grid      :        621. kBytes
   one-center:          3. kBytes
   HF        :          4. kBytes
   nonlr-proj:        361. kBytes
   wavefun   :       3672. kBytes
 
  
  
 General timing and accounting informations for this job:
 ========================================================
  
                  Total CPU time used (sec):      118.807
                            User time (sec):      117.535
                          System time (sec):        1.272
                         Elapsed time (sec):      122.406
  
                   Maximum memory used (kb):      130824.
                   Average memory used (kb):           0.
  
                          Minor page faults:        33270
                          Major page faults:            0
                 Voluntary context switches:         1197
