 running on   96 total cores
 distrk:  each k-point on   24 cores,    4 groups
 distr:  one band on    6 cores,    4 groups
 using from now: INCAR     
 vasp.5.4.1 24Jun15 (build Nov 25 2015 16:01:35) complex                        
  
 POSCAR found type information on POSCAR  Si
 POSCAR found :  1 types and       2 ions
 scaLAPACK will be used

 ----------------------------------------------------------------------------- 
|                                                                             |
|           W    W    AA    RRRRR   N    N  II  N    N   GGGG   !!!           |
|           W    W   A  A   R    R  NN   N  II  NN   N  G    G  !!!           |
|           W    W  A    A  R    R  N N  N  II  N N  N  G       !!!           |
|           W WW W  AAAAAA  RRRRR   N  N N  II  N  N N  G  GGG   !            |
|           WW  WW  A    A  R   R   N   NN  II  N   NN  G    G                |
|           W    W  A    A  R    R  N    N  II  N    N   GGGG   !!!           |
|                                                                             |
|      You have enabled k-point parallelism (KPAR>1).                         |
|      This developmental code was originally  written by Paul Kent at ORNL,  |
|      and carefully double checked in Vienna.                                |
|      GW as well as linear response parallelism added by Martijn Marsman     |
|      and Georg Kresse.                                                      |
|      Carefully verify results versus KPAR=1.                                |
|      Report problems to Paul Kent and Vienna.                               |
|                                                                             |
 ----------------------------------------------------------------------------- 


 ----------------------------------------------------------------------------- 
|                                                                             |
|           W    W    AA    RRRRR   N    N  II  N    N   GGGG   !!!           |
|           W    W   A  A   R    R  NN   N  II  NN   N  G    G  !!!           |
|           W    W  A    A  R    R  N N  N  II  N N  N  G       !!!           |
|           W WW W  AAAAAA  RRRRR   N  N N  II  N  N N  G  GGG   !            |
|           WW  WW  A    A  R   R   N   NN  II  N   NN  G    G                |
|           W    W  A    A  R    R  N    N  II  N    N   GGGG   !!!           |
|                                                                             |
|      You have selected ISYM=2 for HF type calculation. This will symmetrize |
|      the charge density but not the exchange potential.                     |
|      I suggest to use ISYM=3 instead. This uses symmetry to obtain          |
|      the orbitals at all k-points in the Brillouine zone, but does not      |
|      apply symmetry to the Hartree potential directly.                      |
|      The resultant charge might have lower symmetry than the crystal,       |
|      but at least, Hartree and exchange are fully compatible.               |
|                                                                             |
 ----------------------------------------------------------------------------- 

 LDA part: xc-table for Pade appr. of Perdew

 ----------------------------------------------------------------------------- 
|                                                                             |
|           W    W    AA    RRRRR   N    N  II  N    N   GGGG   !!!           |
|           W    W   A  A   R    R  NN   N  II  NN   N  G    G  !!!           |
|           W    W  A    A  R    R  N N  N  II  N N  N  G       !!!           |
|           W WW W  AAAAAA  RRRRR   N  N N  II  N  N N  G  GGG   !            |
|           WW  WW  A    A  R   R   N   NN  II  N   NN  G    G                |
|           W    W  A    A  R    R  N    N  II  N    N   GGGG   !!!           |
|                                                                             |
|      Your generating k-point grid is not commensurate to the symmetry       |
|      of the lattice.  This can cause   slow convergence with respect        |
|      to k-points for HF type calculations                                   |
|      suggested SOLUTIONS:                                                   |
|       ) if not already the case, use automatic k-point generation           |
|       ) shift your grid to Gamma (G) (e.g. required for hex or fcc lattice) |
|                                                                             |
 ----------------------------------------------------------------------------- 

 POSCAR, INCAR and KPOINTS ok, starting setup
 WARNING: small aliasing (wrap around) errors must be expected
 FFT: planning ...
 WAVECAR not read
 WARNING: random wavefunctions but no delay for mixing, default for NELMDL
 entering main loop
       N       E                     dE             d eps       ncg     rms          ort
DAV:   1     0.208944891906E+03    0.20894E+03   -0.19808E+04  1320   0.129E+03
DAV:   2     0.681800792841E+01   -0.20213E+03   -0.19481E+03  1320   0.378E+02
DAV:   3    -0.130272659840E+01   -0.81207E+01   -0.74034E+01  1320   0.533E+01
DAV:   4    -0.137263106329E+01   -0.69904E-01   -0.69908E-01  1320   0.634E+00
DAV:   5    -0.137292196160E+01   -0.29090E-03   -0.29102E-03  1320   0.397E-01
 gam= 0.000 g(H,U,f)=  0.156E-01 0.181E-01 0.266E-50 ort(H,U,f) = 0.000E+00 0.000E+00 0.000E+00
SDA:   6    -0.121918477666E+02   -0.10819E+02   -0.29102E-03  1320   0.337E-01 0.000E+00
 gam= 0.000 trial= 0.400  step= 1.255 mean= 0.400
 gam= 0.347 g(H,U,f)=  0.756E-02 0.412E-02 0.130E-24 ort(H,U,f) =-0.585E-02 0.772E-02 0.270E-24
CGA:   7    -0.122136829988E+02   -0.21835E-01   -0.21139E-01  1320   0.117E-01 0.187E-02
 gam= 0.347 trial= 0.443  step= 0.935 mean= 0.443
 gam= 0.250 g(H,U,f)=  0.226E-02 0.667E-03 0.424E-18 ort(H,U,f) =-0.238E-02 0.263E-02 0.198E-17
CGA:   8    -0.122195089123E+02   -0.58259E-02   -0.57659E-02  1320   0.293E-02 0.246E-03
 gam= 0.250 trial= 0.467  step= 0.898 mean= 0.467
 gam= 0.112 g(H,U,f)=  0.286E-03 0.410E-04 0.573E-57 ort(H,U,f) =-0.308E-03 0.311E-03 0.635E-56
CGA:   9    -0.122208521088E+02   -0.13432E-02   -0.13422E-02  1320   0.327E-03 0.323E-05
 gam= 0.112 trial= 0.489  step= 0.780 mean= 0.489
 gam= 0.148 g(H,U,f)=  0.408E-04 0.776E-05 0.106E-20 ort(H,U,f) =-0.341E-04 0.305E-04 0.873E-20
CGA:  10    -0.122209792622E+02   -0.12715E-03   -0.12766E-03  1320   0.485E-04-0.355E-05
 gam= 0.148 trial= 0.503  step= 0.803 mean= 0.503
 gam= 0.199 g(H,U,f)=  0.746E-05 0.218E-05 0.490E-41 ort(H,U,f) =-0.676E-05 0.634E-05 0.371E-40
CGA:  11    -0.122209984868E+02   -0.19225E-04   -0.19279E-04  1320   0.965E-05-0.420E-06
 gam= 0.199 trial= 0.518  step= 0.894 mean= 0.518
 gam= 0.232 g(H,U,f)=  0.177E-05 0.468E-06 0.179E-68 ort(H,U,f) =-0.201E-05 0.157E-05 0.327E-67
CGA:  12    -0.122210026759E+02   -0.41891E-05   -0.42732E-05  1320   0.224E-05-0.440E-06
 gam= 0.232 trial= 0.537  step= 1.062 mean= 0.537
 gam= 0.258 g(H,U,f)=  0.537E-06 0.387E-07 0.348E-41 ort(H,U,f) =-0.537E-06 0.225E-06-0.133E-40
CGA:  13    -0.122210037268E+02   -0.10509E-05   -0.11333E-05  1320   0.576E-06-0.312E-06
 gam= 0.258 trial= 0.563  step= 0.728 mean= 0.563
 gam= 0.126 g(H,U,f)=  0.677E-07 0.494E-08 0.319E-29 ort(H,U,f) =-0.456E-08 0.280E-07 0.515E-31
CGA:  14    -0.122210039092E+02   -0.18239E-06   -0.18041E-06  1320   0.726E-07 0.234E-07
 gam= 0.126 trial= 0.572  step= 0.396 mean= 0.572
   1 F= -.12221004E+02 E0= -.12221004E+02  d E =-.122210E+02
 curvature:   0.00 expect dE=       NaN dE for cont linesearch        NaN
 trial: gam= 0.00000 g(F)=        NaN g(S)=        NaN ort =       NaN (trialstep = 0.100E+01)
 search vector abs. value=        NaN
 reached required accuracy - stopping structural energy minimisation
 writing wavefunctions
Application 21907459 resources: utime ~11672s, stime ~45s, Rss ~131416, inblocks ~581311, outblocks ~809912
