   2   2   1   0
  0.2002393E+02  0.3840297E-09  0.3840297E-09  0.3840297E-09  0.5000000E-15
  1.000000000000000E-004
  CAR 
 Name                                    
     16.96555531     -7.29708715  301      5.89572469      1.00000000
     -7.297  0.0000E+00  0.0000E+00
     -7.216  0.0000E+00  0.0000E+00
     -7.135  0.0000E+00  0.0000E+00
     -7.054  0.0000E+00  0.0000E+00
     -6.974  0.0000E+00  0.0000E+00
     -6.893  0.0000E+00  0.0000E+00
     -6.812  0.0000E+00  0.0000E+00
     -6.731  0.0000E+00  0.0000E+00
     -6.650  0.0000E+00  0.0000E+00
     -6.569  0.0000E+00  0.0000E+00
     -6.488  0.0000E+00  0.0000E+00
     -6.407  0.0000E+00  0.0000E+00
     -6.327  0.0000E+00  0.0000E+00
     -6.246  0.2047E-13  0.1656E-14
     -6.165  0.1212E+00  0.9804E-02
     -6.084  0.0000E+00  0.9804E-02
     -6.003  0.0000E+00  0.9804E-02
     -5.922  0.0000E+00  0.9804E-02
     -5.841  0.8171E-01  0.1641E-01
     -5.760  0.8881E+00  0.8824E-01
     -5.680  0.7273E+00  0.1471E+00
     -5.599  0.0000E+00  0.1471E+00
     -5.518  0.0000E+00  0.1471E+00
     -5.437  0.0000E+00  0.1471E+00
     -5.356  0.0000E+00  0.1471E+00
     -5.275  0.7656E-06  0.1471E+00
     -5.194  0.1455E+01  0.2647E+00
     -5.113  0.0000E+00  0.2647E+00
     -5.033  0.0000E+00  0.2647E+00
     -4.952  0.0000E+00  0.2647E+00
     -4.871  0.2895E+01  0.4989E+00
     -4.790  0.9678E+00  0.5783E+00
     -4.709  0.0000E+00  0.5784E+00
     -4.628  0.0000E+00  0.5784E+00
     -4.547  0.0000E+00  0.5784E+00
     -4.466  0.0000E+00  0.5784E+00
     -4.386  0.0000E+00  0.5784E+00
     -4.305  0.5990E-03  0.5785E+00
     -4.224  0.7267E+00  0.6373E+00
     -4.143  0.0000E+00  0.6373E+00
     -4.062  0.2846E+01  0.8674E+00
     -3.981  0.0000E+00  0.8725E+00
     -3.900  0.5081E+00  0.9136E+00
     -3.819  0.2886E+01  0.1147E+01
     -3.739  0.4010E-12  0.1147E+01
     -3.658  0.2909E+01  0.1382E+01
     -3.577  0.0000E+00  0.1382E+01
     -3.496  0.0000E+00  0.1382E+01
     -3.415  0.0000E+00  0.1382E+01
     -3.334  0.0000E+00  0.1382E+01
     -3.253  0.0000E+00  0.1382E+01
     -3.172  0.0000E+00  0.1382E+01
     -3.092  0.2903E+01  0.1617E+01
     -3.011  0.0000E+00  0.1618E+01
     -2.930  0.3219E-02  0.1618E+01
     -2.849  0.4361E+01  0.1971E+01
     -2.768  0.0000E+00  0.1971E+01
     -2.687  0.0000E+00  0.1971E+01
     -2.606  0.0000E+00  0.1971E+01
     -2.525  0.0000E+00  0.1971E+01
     -2.445  0.0000E+00  0.1971E+01
     -2.364  0.0000E+00  0.1971E+01
     -2.283  0.0000E+00  0.1971E+01
     -2.202  0.0000E+00  0.1971E+01
     -2.121  0.0000E+00  0.1971E+01
     -2.040  0.1151E+00  0.1980E+01
     -1.959  0.6123E+00  0.2029E+01
     -1.878  0.0000E+00  0.2029E+01
     -1.798  0.0000E+00  0.2029E+01
     -1.717  0.0000E+00  0.2029E+01
     -1.636  0.0000E+00  0.2029E+01
     -1.555  0.0000E+00  0.2029E+01
     -1.474  0.0000E+00  0.2029E+01
     -1.393  0.0000E+00  0.2029E+01
     -1.312  0.0000E+00  0.2029E+01
     -1.231  0.2447E-01  0.2031E+01
     -1.151  0.4604E+00  0.2069E+01
     -1.070  0.6795E+00  0.2124E+01
     -0.989  0.2799E+01  0.2350E+01
     -0.908  0.8852E+00  0.2422E+01
     -0.827  0.2882E+01  0.2655E+01
     -0.746  0.2909E+01  0.2892E+01
     -0.665  0.0000E+00  0.2892E+01
     -0.584  0.0000E+00  0.2892E+01
     -0.504  0.0000E+00  0.2892E+01
     -0.423  0.0000E+00  0.2892E+01
     -0.342  0.0000E+00  0.2892E+01
     -0.261  0.2168E-02  0.2892E+01
     -0.180  0.2907E+01  0.3127E+01
     -0.099  0.0000E+00  0.3127E+01
     -0.018  0.0000E+00  0.3127E+01
      0.063  0.0000E+00  0.3127E+01
      0.143  0.1241E+01  0.3228E+01
      0.224  0.1669E+01  0.3363E+01
      0.305  0.0000E+00  0.3363E+01
      0.386  0.3816E-09  0.3363E+01
      0.467  0.9698E+00  0.3441E+01
      0.548  0.0000E+00  0.3441E+01
      0.629  0.0000E+00  0.3441E+01
      0.710  0.0000E+00  0.3441E+01
      0.790  0.6457E+00  0.3493E+01
      0.871  0.0000E+00  0.3500E+01
      0.952  0.0000E+00  0.3500E+01
      1.033  0.0000E+00  0.3500E+01
      1.114  0.0000E+00  0.3500E+01
      1.195  0.0000E+00  0.3500E+01
      1.276  0.6355E-09  0.3500E+01
      1.357  0.4279E+01  0.3846E+01
      1.437  0.0000E+00  0.3853E+01
      1.518  0.0000E+00  0.3853E+01
      1.599  0.0000E+00  0.3853E+01
      1.680  0.7720E-13  0.3853E+01
      1.761  0.2909E+01  0.4088E+01
      1.842  0.0000E+00  0.4088E+01
      1.923  0.0000E+00  0.4088E+01
      2.004  0.0000E+00  0.4088E+01
      2.084  0.1446E+01  0.4205E+01
      2.165  0.3080E+01  0.4455E+01
      2.246  0.2739E+01  0.4676E+01
      2.327  0.0000E+00  0.4676E+01
      2.408  0.0000E+00  0.4676E+01
      2.489  0.0000E+00  0.4676E+01
      2.570  0.0000E+00  0.4676E+01
      2.651  0.0000E+00  0.4676E+01
      2.731  0.2903E+01  0.4911E+01
      2.812  0.0000E+00  0.4912E+01
      2.893  0.2993E-04  0.4912E+01
      2.974  0.8159E+00  0.4978E+01
      3.055  0.5730E+01  0.5441E+01
      3.136  0.0000E+00  0.5441E+01
      3.217  0.7797E+00  0.5504E+01
      3.298  0.2130E+01  0.5676E+01
      3.378  0.2912E+01  0.5912E+01
      3.459  0.1104E+01  0.6001E+01
      3.540  0.2771E+01  0.6225E+01
      3.621  0.3776E-10  0.6225E+01
      3.702  0.1455E+01  0.6343E+01
      3.783  0.2874E+01  0.6576E+01
      3.864  0.0000E+00  0.6637E+01
      3.945  0.0000E+00  0.6637E+01
      4.025  0.3281E+01  0.6903E+01
      4.106  0.2529E+01  0.7108E+01
      4.187  0.0000E+00  0.7108E+01
      4.268  0.0000E+00  0.7108E+01
      4.349  0.0000E+00  0.7108E+01
      4.430  0.0000E+00  0.7108E+01
      4.511  0.2902E+01  0.7343E+01
      4.592  0.1400E+01  0.7456E+01
      4.672  0.5531E+00  0.7539E+01
      4.753  0.1500E-06  0.7539E+01
      4.834  0.1940E+01  0.7696E+01
      4.915  0.0000E+00  0.7696E+01
      4.996  0.0000E+00  0.7696E+01
      5.077  0.0000E+00  0.7696E+01
      5.158  0.0000E+00  0.7696E+01
      5.239  0.1256E+01  0.7798E+01
      5.319  0.1743E-02  0.7814E+01
      5.400  0.1938E+01  0.7971E+01
      5.481  0.0000E+00  0.7971E+01
      5.562  0.0000E+00  0.7971E+01
      5.643  0.0000E+00  0.7971E+01
      5.724  0.0000E+00  0.7971E+01
      5.805  0.3119E+00  0.7996E+01
      5.886  0.0000E+00  0.8000E+01
      5.966  0.0000E+00  0.8000E+01
      6.047  0.0000E+00  0.8000E+01
      6.128  0.0000E+00  0.8000E+01
      6.209  0.0000E+00  0.8000E+01
      6.290  0.0000E+00  0.8000E+01
      6.371  0.4436E-01  0.8004E+01
      6.452  0.1410E+01  0.8118E+01
      6.533  0.0000E+00  0.8118E+01
      6.613  0.0000E+00  0.8118E+01
      6.694  0.2281E-10  0.8118E+01
      6.775  0.2909E+01  0.8353E+01
      6.856  0.0000E+00  0.8353E+01
      6.937  0.0000E+00  0.8353E+01
      7.018  0.0000E+00  0.8353E+01
      7.099  0.0000E+00  0.8353E+01
      7.180  0.0000E+00  0.8353E+01
      7.260  0.1533E+01  0.8477E+01
      7.341  0.0000E+00  0.8510E+01
      7.422  0.5520E+00  0.8554E+01
      7.503  0.9600E+00  0.8646E+01
      7.584  0.0000E+00  0.8647E+01
      7.665  0.6914E+00  0.8703E+01
      7.746  0.4363E+01  0.9082E+01
      7.827  0.0000E+00  0.9176E+01
      7.908  0.0000E+00  0.9176E+01
      7.988  0.0000E+00  0.9176E+01
      8.069  0.1767E-01  0.9178E+01
      8.150  0.9724E+00  0.9257E+01
      8.231  0.2889E+01  0.9490E+01
      8.312  0.2126E+00  0.9507E+01
      8.393  0.2975E-02  0.9520E+01
      8.474  0.2906E+01  0.9755E+01
      8.555  0.5841E-01  0.9760E+01
      8.635  0.2851E+01  0.9990E+01
      8.716  0.0000E+00  0.9990E+01
      8.797  0.1419E+01  0.1010E+02
      8.878  0.0000E+00  0.1011E+02
      8.959  0.6351E+00  0.1016E+02
      9.040  0.1414E+01  0.1027E+02
      9.121  0.3838E+01  0.1058E+02
      9.202  0.9977E-08  0.1059E+02
      9.282  0.3228E+01  0.1085E+02
      9.363  0.3075E+01  0.1110E+02
      9.444  0.2909E+01  0.1133E+02
      9.525  0.2112E-12  0.1133E+02
      9.606  0.1455E+01  0.1145E+02
      9.687  0.0000E+00  0.1145E+02
      9.768  0.1754E-01  0.1145E+02
      9.849  0.7112E+01  0.1203E+02
      9.929  0.3999E-06  0.1216E+02
     10.010  0.5892E+01  0.1263E+02
     10.091  0.6817E+00  0.1269E+02
     10.172  0.1427E+01  0.1280E+02
     10.253  0.2075E+01  0.1297E+02
     10.334  0.9958E-03  0.1304E+02
     10.415  0.2908E+01  0.1327E+02
     10.496  0.0000E+00  0.1327E+02
     10.576  0.0000E+00  0.1327E+02
     10.657  0.0000E+00  0.1327E+02
     10.738  0.0000E+00  0.1327E+02
     10.819  0.4363E+00  0.1331E+02
     10.900  0.2473E+01  0.1351E+02
     10.981  0.0000E+00  0.1351E+02
     11.062  0.0000E+00  0.1351E+02
     11.143  0.1615E-15  0.1351E+02
     11.223  0.9692E+00  0.1359E+02
     11.304  0.0000E+00  0.1359E+02
     11.385  0.1353E+01  0.1370E+02
     11.466  0.1564E-06  0.1371E+02
     11.547  0.1455E+01  0.1382E+02
     11.628  0.0000E+00  0.1382E+02
     11.709  0.0000E+00  0.1382E+02
     11.790  0.1518E-02  0.1382E+02
     11.870  0.2908E+01  0.1406E+02
     11.951  0.0000E+00  0.1406E+02
     12.032  0.0000E+00  0.1406E+02
     12.113  0.1393E-02  0.1406E+02
     12.194  0.2908E+01  0.1429E+02
     12.275  0.4363E+01  0.1465E+02
     12.356  0.0000E+00  0.1465E+02
     12.437  0.0000E+00  0.1465E+02
     12.517  0.0000E+00  0.1465E+02
     12.598  0.0000E+00  0.1465E+02
     12.679  0.0000E+00  0.1465E+02
     12.760  0.3715E-14  0.1465E+02
     12.841  0.4362E+01  0.1500E+02
     12.922  0.0000E+00  0.1500E+02
     13.003  0.6432E-02  0.1500E+02
     13.084  0.4358E+01  0.1535E+02
     13.164  0.6641E-05  0.1535E+02
     13.245  0.5816E+01  0.1582E+02
     13.326  0.4841E+00  0.1586E+02
     13.407  0.0000E+00  0.1586E+02
     13.488  0.2062E-01  0.1586E+02
     13.569  0.9492E+00  0.1594E+02
     13.650  0.0000E+00  0.1594E+02
     13.731  0.0000E+00  0.1594E+02
     13.811  0.0000E+00  0.1594E+02
     13.892  0.0000E+00  0.1594E+02
     13.973  0.0000E+00  0.1594E+02
     14.054  0.0000E+00  0.1594E+02
     14.135  0.0000E+00  0.1594E+02
     14.216  0.0000E+00  0.1594E+02
     14.297  0.0000E+00  0.1594E+02
     14.378  0.0000E+00  0.1594E+02
     14.458  0.0000E+00  0.1594E+02
     14.539  0.0000E+00  0.1594E+02
     14.620  0.0000E+00  0.1594E+02
     14.701  0.0000E+00  0.1594E+02
     14.782  0.0000E+00  0.1594E+02
     14.863  0.0000E+00  0.1594E+02
     14.944  0.0000E+00  0.1594E+02
     15.025  0.0000E+00  0.1594E+02
     15.105  0.0000E+00  0.1594E+02
     15.186  0.0000E+00  0.1594E+02
     15.267  0.0000E+00  0.1594E+02
     15.348  0.0000E+00  0.1594E+02
     15.429  0.0000E+00  0.1594E+02
     15.510  0.0000E+00  0.1594E+02
     15.591  0.0000E+00  0.1594E+02
     15.672  0.0000E+00  0.1594E+02
     15.752  0.0000E+00  0.1594E+02
     15.833  0.1127E-03  0.1594E+02
     15.914  0.7272E+00  0.1600E+02
     15.995  0.0000E+00  0.1600E+02
     16.076  0.0000E+00  0.1600E+02
     16.157  0.0000E+00  0.1600E+02
     16.238  0.0000E+00  0.1600E+02
     16.319  0.0000E+00  0.1600E+02
     16.399  0.0000E+00  0.1600E+02
     16.480  0.0000E+00  0.1600E+02
     16.561  0.0000E+00  0.1600E+02
     16.642  0.0000E+00  0.1600E+02
     16.723  0.0000E+00  0.1600E+02
     16.804  0.0000E+00  0.1600E+02
     16.885  0.0000E+00  0.1600E+02
     16.966  0.0000E+00  0.1600E+02
     16.96555531     -7.29708715  301      5.89572469      1.00000000
     -7.297  0.0000E+00  0.0000E+00  0.0000E+00
     -7.216  0.0000E+00  0.0000E+00  0.0000E+00
     -7.135  0.0000E+00  0.0000E+00  0.0000E+00
     -7.054  0.0000E+00  0.0000E+00  0.0000E+00
     -6.974  0.0000E+00  0.0000E+00  0.0000E+00
     -6.893  0.0000E+00  0.0000E+00  0.0000E+00
     -6.812  0.0000E+00  0.0000E+00  0.0000E+00
     -6.731  0.0000E+00  0.0000E+00  0.0000E+00
     -6.650  0.0000E+00  0.0000E+00  0.0000E+00
     -6.569  0.0000E+00  0.0000E+00  0.0000E+00
     -6.488  0.0000E+00  0.0000E+00  0.0000E+00
     -6.407  0.0000E+00  0.0000E+00  0.0000E+00
     -6.327  0.0000E+00  0.0000E+00  0.0000E+00
     -6.246  0.4358E-14  0.9233E-29  0.0000E+00
     -6.165  0.2581E-01  0.5468E-16  0.0000E+00
     -6.084  0.0000E+00  0.0000E+00  0.0000E+00
     -6.003  0.0000E+00  0.0000E+00  0.0000E+00
     -5.922  0.0000E+00  0.0000E+00  0.0000E+00
     -5.841  0.1726E-01  0.3158E-03  0.0000E+00
     -5.760  0.1876E+00  0.3432E-02  0.0000E+00
     -5.680  0.1530E+00  0.3878E-02  0.0000E+00
     -5.599  0.0000E+00  0.0000E+00  0.0000E+00
     -5.518  0.0000E+00  0.0000E+00  0.0000E+00
     -5.437  0.0000E+00  0.0000E+00  0.0000E+00
     -5.356  0.0000E+00  0.0000E+00  0.0000E+00
     -5.275  0.1601E-06  0.7531E-08  0.0000E+00
     -5.194  0.3042E+00  0.1431E-01  0.0000E+00
     -5.113  0.0000E+00  0.0000E+00  0.0000E+00
     -5.033  0.0000E+00  0.0000E+00  0.0000E+00
     -4.952  0.0000E+00  0.0000E+00  0.0000E+00
     -4.871  0.6018E+00  0.3899E-01  0.0000E+00
     -4.790  0.2037E+00  0.1230E-01  0.0000E+00
     -4.709  0.0000E+00  0.0000E+00  0.0000E+00
     -4.628  0.0000E+00  0.0000E+00  0.0000E+00
     -4.547  0.0000E+00  0.0000E+00  0.0000E+00
     -4.466  0.0000E+00  0.0000E+00  0.0000E+00
     -4.386  0.0000E+00  0.0000E+00  0.0000E+00
     -4.305  0.1219E-03  0.1249E-04  0.0000E+00
     -4.224  0.1479E+00  0.1516E-01  0.0000E+00
     -4.143  0.0000E+00  0.0000E+00  0.0000E+00
     -4.062  0.6025E+00  0.5252E-01  0.0000E+00
     -3.981  0.0000E+00  0.0000E+00  0.0000E+00
     -3.900  0.1050E+00  0.1152E-01  0.0000E+00
     -3.819  0.6053E+00  0.6104E-01  0.0000E+00
     -3.739  0.8705E-13  0.7727E-14  0.0000E+00
     -3.658  0.6315E+00  0.5606E-01  0.0000E+00
     -3.577  0.0000E+00  0.0000E+00  0.0000E+00
     -3.496  0.0000E+00  0.0000E+00  0.0000E+00
     -3.415  0.0000E+00  0.0000E+00  0.0000E+00
     -3.334  0.0000E+00  0.0000E+00  0.0000E+00
     -3.253  0.0000E+00  0.0000E+00  0.0000E+00
     -3.172  0.0000E+00  0.0000E+00  0.0000E+00
     -3.092  0.5896E+00  0.9091E-01  0.0000E+00
     -3.011  0.0000E+00  0.0000E+00  0.0000E+00
     -2.930  0.6906E-03  0.8993E-04  0.0000E+00
     -2.849  0.9396E+00  0.1201E+00  0.0000E+00
     -2.768  0.0000E+00  0.0000E+00  0.0000E+00
     -2.687  0.0000E+00  0.0000E+00  0.0000E+00
     -2.606  0.0000E+00  0.0000E+00  0.0000E+00
     -2.525  0.0000E+00  0.0000E+00  0.0000E+00
     -2.445  0.0000E+00  0.0000E+00  0.0000E+00
     -2.364  0.0000E+00  0.0000E+00  0.0000E+00
     -2.283  0.0000E+00  0.0000E+00  0.0000E+00
     -2.202  0.0000E+00  0.0000E+00  0.0000E+00
     -2.121  0.0000E+00  0.0000E+00  0.0000E+00
     -2.040  0.2222E-01  0.5239E-02  0.0000E+00
     -1.959  0.1183E+00  0.2788E-01  0.0000E+00
     -1.878  0.0000E+00  0.0000E+00  0.0000E+00
     -1.798  0.0000E+00  0.0000E+00  0.0000E+00
     -1.717  0.0000E+00  0.0000E+00  0.0000E+00
     -1.636  0.0000E+00  0.0000E+00  0.0000E+00
     -1.555  0.0000E+00  0.0000E+00  0.0000E+00
     -1.474  0.0000E+00  0.0000E+00  0.0000E+00
     -1.393  0.0000E+00  0.0000E+00  0.0000E+00
     -1.312  0.0000E+00  0.0000E+00  0.0000E+00
     -1.231  0.2371E-02  0.2301E-02  0.0000E+00
     -1.151  0.4460E-01  0.4329E-01  0.0000E+00
     -1.070  0.1119E+00  0.4554E-01  0.0000E+00
     -0.989  0.4673E+00  0.1853E+00  0.0000E+00
     -0.908  0.1556E+00  0.5571E-01  0.0000E+00
     -0.827  0.3459E+00  0.2516E+00  0.0000E+00
     -0.746  0.5392E+00  0.1769E+00  0.0000E+00
     -0.665  0.0000E+00  0.0000E+00  0.0000E+00
     -0.584  0.0000E+00  0.0000E+00  0.0000E+00
     -0.504  0.0000E+00  0.0000E+00  0.0000E+00
     -0.423  0.0000E+00  0.0000E+00  0.0000E+00
     -0.342  0.0000E+00  0.0000E+00  0.0000E+00
     -0.261  0.2707E-03  0.1956E-03  0.0000E+00
     -0.180  0.3631E+00  0.2622E+00  0.0000E+00
     -0.099  0.0000E+00  0.0000E+00  0.0000E+00
     -0.018  0.0000E+00  0.0000E+00  0.0000E+00
      0.063  0.0000E+00  0.0000E+00  0.0000E+00
      0.143  0.2108E+00  0.9452E-01  0.0000E+00
      0.224  0.2836E+00  0.1271E+00  0.0000E+00
      0.305  0.0000E+00  0.0000E+00  0.0000E+00
      0.386  0.3987E-10  0.3946E-10  0.0000E+00
      0.467  0.1013E+00  0.1003E+00  0.0000E+00
      0.548  0.0000E+00  0.0000E+00  0.0000E+00
      0.629  0.0000E+00  0.0000E+00  0.0000E+00
      0.710  0.0000E+00  0.0000E+00  0.0000E+00
      0.790  0.1128E+00  0.5097E-01  0.0000E+00
      0.871  0.0000E+00  0.0000E+00  0.0000E+00
      0.952  0.0000E+00  0.0000E+00  0.0000E+00
      1.033  0.0000E+00  0.0000E+00  0.0000E+00
      1.114  0.0000E+00  0.0000E+00  0.0000E+00
      1.195  0.0000E+00  0.0000E+00  0.0000E+00
      1.276  0.2459E-11  0.9546E-10  0.0000E+00
      1.357  0.3626E+00  0.5121E+00  0.0000E+00
      1.437  0.0000E+00  0.0000E+00  0.0000E+00
      1.518  0.0000E+00  0.0000E+00  0.0000E+00
      1.599  0.0000E+00  0.0000E+00  0.0000E+00
      1.680  0.1599E-14  0.1147E-13  0.0000E+00
      1.761  0.6025E-01  0.4324E+00  0.0000E+00
      1.842  0.0000E+00  0.0000E+00  0.0000E+00
      1.923  0.0000E+00  0.0000E+00  0.0000E+00
      2.004  0.0000E+00  0.0000E+00  0.0000E+00
      2.084  0.1771E+00  0.1631E+00  0.0000E+00
      2.165  0.1900E-01  0.4991E+00  0.0000E+00
      2.246  0.3296E-01  0.4326E+00  0.0000E+00
      2.327  0.0000E+00  0.0000E+00  0.0000E+00
      2.408  0.0000E+00  0.0000E+00  0.0000E+00
      2.489  0.0000E+00  0.0000E+00  0.0000E+00
      2.570  0.0000E+00  0.0000E+00  0.0000E+00
      2.651  0.0000E+00  0.0000E+00  0.0000E+00
      2.731  0.1030E+00  0.4479E+00  0.0000E+00
      2.812  0.0000E+00  0.0000E+00  0.0000E+00
      2.893  0.9282E-22  0.5903E-05  0.0000E+00
      2.974  0.3715E-02  0.1572E+00  0.0000E+00
      3.055  0.1257E+00  0.9528E+00  0.0000E+00
      3.136  0.0000E+00  0.0000E+00  0.0000E+00
      3.217  0.4368E-16  0.1550E+00  0.0000E+00
      3.298  0.2170E-12  0.4233E+00  0.0000E+00
      3.378  0.1789E-01  0.5324E+00  0.0000E+00
      3.459  0.7390E-01  0.1631E+00  0.0000E+00
      3.540  0.1257E-01  0.5089E+00  0.0000E+00
      3.621  0.5486E-26  0.7671E-11  0.0000E+00
      3.702  0.1164E-14  0.2955E+00  0.0000E+00
      3.783  0.1634E+00  0.4543E+00  0.0000E+00
      3.864  0.0000E+00  0.0000E+00  0.0000E+00
      3.945  0.0000E+00  0.0000E+00  0.0000E+00
      4.025  0.1216E-13  0.6755E+00  0.0000E+00
      4.106  0.1390E-14  0.5092E+00  0.0000E+00
      4.187  0.0000E+00  0.0000E+00  0.0000E+00
      4.268  0.0000E+00  0.0000E+00  0.0000E+00
      4.349  0.0000E+00  0.0000E+00  0.0000E+00
      4.430  0.0000E+00  0.0000E+00  0.0000E+00
      4.511  0.4113E-16  0.6190E+00  0.0000E+00
      4.592  0.3138E-15  0.2887E+00  0.0000E+00
      4.672  0.2030E-15  0.1209E+00  0.0000E+00
      4.753  0.1154E-23  0.3241E-07  0.0000E+00
      4.834  0.1491E-16  0.4189E+00  0.0000E+00
      4.915  0.0000E+00  0.0000E+00  0.0000E+00
      4.996  0.0000E+00  0.0000E+00  0.0000E+00
      5.077  0.0000E+00  0.0000E+00  0.0000E+00
      5.158  0.0000E+00  0.0000E+00  0.0000E+00
      5.239  0.1458E-15  0.2770E+00  0.0000E+00
      5.319  0.4064E-19  0.3712E-03  0.0000E+00
      5.400  0.4519E-16  0.4128E+00  0.0000E+00
      5.481  0.0000E+00  0.0000E+00  0.0000E+00
      5.562  0.0000E+00  0.0000E+00  0.0000E+00
      5.643  0.0000E+00  0.0000E+00  0.0000E+00
      5.724  0.0000E+00  0.0000E+00  0.0000E+00
      5.805  0.4746E-13  0.6750E-01  0.0000E+00
      5.886  0.0000E+00  0.0000E+00  0.0000E+00
      5.966  0.0000E+00  0.0000E+00  0.0000E+00
      6.047  0.0000E+00  0.0000E+00  0.0000E+00
      6.128  0.0000E+00  0.0000E+00  0.0000E+00
      6.209  0.0000E+00  0.0000E+00  0.0000E+00
      6.290  0.0000E+00  0.0000E+00  0.0000E+00
      6.371  0.2326E-02  0.1497E-02  0.0000E+00
      6.452  0.7350E-01  0.6387E-01  0.0000E+00
      6.533  0.0000E+00  0.0000E+00  0.0000E+00
      6.613  0.0000E+00  0.0000E+00  0.0000E+00
      6.694  0.1157E-11  0.9672E-12  0.0000E+00
      6.775  0.1476E+00  0.1233E+00  0.0000E+00
      6.856  0.0000E+00  0.0000E+00  0.0000E+00
      6.937  0.0000E+00  0.0000E+00  0.0000E+00
      7.018  0.0000E+00  0.0000E+00  0.0000E+00
      7.099  0.0000E+00  0.0000E+00  0.0000E+00
      7.180  0.0000E+00  0.0000E+00  0.0000E+00
      7.260  0.1177E+00  0.6132E-01  0.0000E+00
      7.341  0.0000E+00  0.0000E+00  0.0000E+00
      7.422  0.1682E-01  0.5589E-01  0.0000E+00
      7.503  0.1673E+00  0.2923E-01  0.0000E+00
      7.584  0.0000E+00  0.0000E+00  0.0000E+00
      7.665  0.2906E-01  0.3728E-01  0.0000E+00
      7.746  0.2147E+00  0.3298E+00  0.0000E+00
      7.827  0.0000E+00  0.0000E+00  0.0000E+00
      7.908  0.0000E+00  0.0000E+00  0.0000E+00
      7.988  0.0000E+00  0.0000E+00  0.0000E+00
      8.069  0.2239E-02  0.1282E-02  0.0000E+00
      8.150  0.1223E+00  0.7034E-01  0.0000E+00
      8.231  0.2325E+00  0.1807E+00  0.0000E+00
      8.312  0.5446E-12  0.3216E-01  0.0000E+00
      8.393  0.1016E-03  0.2131E-03  0.0000E+00
      8.474  0.9929E-01  0.2082E+00  0.0000E+00
      8.555  0.1713E-02  0.5914E-02  0.0000E+00
      8.635  0.8362E-01  0.2886E+00  0.0000E+00
      8.716  0.0000E+00  0.0000E+00  0.0000E+00
      8.797  0.1350E+00  0.1295E+00  0.0000E+00
      8.878  0.0000E+00  0.0000E+00  0.0000E+00
      8.959  0.6217E-13  0.9776E-01  0.0000E+00
      9.040  0.8699E-03  0.2101E+00  0.0000E+00
      9.121  0.4685E-01  0.3292E+00  0.0000E+00
      9.202  0.1066E-21  0.1137E-08  0.0000E+00
      9.282  0.7973E-01  0.3324E+00  0.0000E+00
      9.363  0.1004E+00  0.3575E+00  0.0000E+00
      9.444  0.5638E-01  0.1722E+00  0.0000E+00
      9.525  0.6527E-14  0.2563E-13  0.0000E+00
      9.606  0.4495E-01  0.1765E+00  0.0000E+00
      9.687  0.0000E+00  0.0000E+00  0.0000E+00
      9.768  0.1178E-02  0.1361E-02  0.0000E+00
      9.849  0.4200E+00  0.6415E+00  0.0000E+00
      9.929  0.5150E-10  0.4615E-07  0.0000E+00
     10.010  0.1947E+00  0.6357E+00  0.0000E+00
     10.091  0.7347E-01  0.4636E-01  0.0000E+00
     10.172  0.6629E-08  0.2376E+00  0.0000E+00
     10.253  0.5832E-01  0.2103E+00  0.0000E+00
     10.334  0.3596E-12  0.1063E-03  0.0000E+00
     10.415  0.1050E-08  0.3105E+00  0.0000E+00
     10.496  0.0000E+00  0.0000E+00  0.0000E+00
     10.576  0.0000E+00  0.0000E+00  0.0000E+00
     10.657  0.0000E+00  0.0000E+00  0.0000E+00
     10.738  0.0000E+00  0.0000E+00  0.0000E+00
     10.819  0.3076E-09  0.6092E-01  0.0000E+00
     10.900  0.1744E-08  0.3453E+00  0.0000E+00
     10.981  0.0000E+00  0.0000E+00  0.0000E+00
     11.062  0.0000E+00  0.0000E+00  0.0000E+00
     11.143  0.2769E-16  0.1894E-16  0.0000E+00
     11.223  0.1662E+00  0.1137E+00  0.0000E+00
     11.304  0.0000E+00  0.0000E+00  0.0000E+00
     11.385  0.9475E-01  0.1268E+00  0.0000E+00
     11.466  0.8739E-09  0.1198E-07  0.0000E+00
     11.547  0.8127E-02  0.1114E+00  0.0000E+00
     11.628  0.0000E+00  0.0000E+00  0.0000E+00
     11.709  0.0000E+00  0.0000E+00  0.0000E+00
     11.790  0.2855E-04  0.1282E-03  0.0000E+00
     11.870  0.5469E-01  0.2455E+00  0.0000E+00
     11.951  0.0000E+00  0.0000E+00  0.0000E+00
     12.032  0.0000E+00  0.0000E+00  0.0000E+00
     12.113  0.2911E-04  0.1429E-03  0.0000E+00
     12.194  0.6077E-01  0.2983E+00  0.0000E+00
     12.275  0.9760E-01  0.5747E+00  0.0000E+00
     12.356  0.0000E+00  0.0000E+00  0.0000E+00
     12.437  0.0000E+00  0.0000E+00  0.0000E+00
     12.517  0.0000E+00  0.0000E+00  0.0000E+00
     12.598  0.0000E+00  0.0000E+00  0.0000E+00
     12.679  0.0000E+00  0.0000E+00  0.0000E+00
     12.760  0.2687E-16  0.5474E-15  0.0000E+00
     12.841  0.8185E-01  0.6278E+00  0.0000E+00
     12.922  0.0000E+00  0.0000E+00  0.0000E+00
     13.003  0.7959E-05  0.1050E-02  0.0000E+00
     13.084  0.8469E-01  0.5396E+00  0.0000E+00
     13.164  0.3004E-14  0.8352E-06  0.0000E+00
     13.245  0.1203E+00  0.7764E+00  0.0000E+00
     13.326  0.3136E-02  0.2434E-01  0.0000E+00
     13.407  0.0000E+00  0.0000E+00  0.0000E+00
     13.488  0.2539E-03  0.2360E-02  0.0000E+00
     13.569  0.1169E-01  0.1086E+00  0.0000E+00
     13.650  0.0000E+00  0.0000E+00  0.0000E+00
     13.731  0.0000E+00  0.0000E+00  0.0000E+00
     13.811  0.0000E+00  0.0000E+00  0.0000E+00
     13.892  0.0000E+00  0.0000E+00  0.0000E+00
     13.973  0.0000E+00  0.0000E+00  0.0000E+00
     14.054  0.0000E+00  0.0000E+00  0.0000E+00
     14.135  0.0000E+00  0.0000E+00  0.0000E+00
     14.216  0.0000E+00  0.0000E+00  0.0000E+00
     14.297  0.0000E+00  0.0000E+00  0.0000E+00
     14.378  0.0000E+00  0.0000E+00  0.0000E+00
     14.458  0.0000E+00  0.0000E+00  0.0000E+00
     14.539  0.0000E+00  0.0000E+00  0.0000E+00
     14.620  0.0000E+00  0.0000E+00  0.0000E+00
     14.701  0.0000E+00  0.0000E+00  0.0000E+00
     14.782  0.0000E+00  0.0000E+00  0.0000E+00
     14.863  0.0000E+00  0.0000E+00  0.0000E+00
     14.944  0.0000E+00  0.0000E+00  0.0000E+00
     15.025  0.0000E+00  0.0000E+00  0.0000E+00
     15.105  0.0000E+00  0.0000E+00  0.0000E+00
     15.186  0.0000E+00  0.0000E+00  0.0000E+00
     15.267  0.0000E+00  0.0000E+00  0.0000E+00
     15.348  0.0000E+00  0.0000E+00  0.0000E+00
     15.429  0.0000E+00  0.0000E+00  0.0000E+00
     15.510  0.0000E+00  0.0000E+00  0.0000E+00
     15.591  0.0000E+00  0.0000E+00  0.0000E+00
     15.672  0.0000E+00  0.0000E+00  0.0000E+00
     15.752  0.0000E+00  0.0000E+00  0.0000E+00
     15.833  0.4174E-09  0.2698E-04  0.0000E+00
     15.914  0.3557E-05  0.1739E+00  0.0000E+00
     15.995  0.0000E+00  0.0000E+00  0.0000E+00
     16.076  0.0000E+00  0.0000E+00  0.0000E+00
     16.157  0.0000E+00  0.0000E+00  0.0000E+00
     16.238  0.0000E+00  0.0000E+00  0.0000E+00
     16.319  0.0000E+00  0.0000E+00  0.0000E+00
     16.399  0.0000E+00  0.0000E+00  0.0000E+00
     16.480  0.0000E+00  0.0000E+00  0.0000E+00
     16.561  0.0000E+00  0.0000E+00  0.0000E+00
     16.642  0.0000E+00  0.0000E+00  0.0000E+00
     16.723  0.0000E+00  0.0000E+00  0.0000E+00
     16.804  0.0000E+00  0.0000E+00  0.0000E+00
     16.885  0.0000E+00  0.0000E+00  0.0000E+00
     16.966  0.0000E+00  0.0000E+00  0.0000E+00
     16.96555531     -7.29708715  301      5.89572469      1.00000000
     -7.297  0.0000E+00  0.0000E+00  0.0000E+00
     -7.216  0.0000E+00  0.0000E+00  0.0000E+00
     -7.135  0.0000E+00  0.0000E+00  0.0000E+00
     -7.054  0.0000E+00  0.0000E+00  0.0000E+00
     -6.974  0.0000E+00  0.0000E+00  0.0000E+00
     -6.893  0.0000E+00  0.0000E+00  0.0000E+00
     -6.812  0.0000E+00  0.0000E+00  0.0000E+00
     -6.731  0.0000E+00  0.0000E+00  0.0000E+00
     -6.650  0.0000E+00  0.0000E+00  0.0000E+00
     -6.569  0.0000E+00  0.0000E+00  0.0000E+00
     -6.488  0.0000E+00  0.0000E+00  0.0000E+00
     -6.407  0.0000E+00  0.0000E+00  0.0000E+00
     -6.327  0.0000E+00  0.0000E+00  0.0000E+00
     -6.246  0.4358E-14  0.1213E-28  0.0000E+00
     -6.165  0.2581E-01  0.7181E-16  0.0000E+00
     -6.084  0.0000E+00  0.0000E+00  0.0000E+00
     -6.003  0.0000E+00  0.0000E+00  0.0000E+00
     -5.922  0.0000E+00  0.0000E+00  0.0000E+00
     -5.841  0.1726E-01  0.3158E-03  0.0000E+00
     -5.760  0.1876E+00  0.3432E-02  0.0000E+00
     -5.680  0.1530E+00  0.3878E-02  0.0000E+00
     -5.599  0.0000E+00  0.0000E+00  0.0000E+00
     -5.518  0.0000E+00  0.0000E+00  0.0000E+00
     -5.437  0.0000E+00  0.0000E+00  0.0000E+00
     -5.356  0.0000E+00  0.0000E+00  0.0000E+00
     -5.275  0.1601E-06  0.7531E-08  0.0000E+00
     -5.194  0.3042E+00  0.1431E-01  0.0000E+00
     -5.113  0.0000E+00  0.0000E+00  0.0000E+00
     -5.033  0.0000E+00  0.0000E+00  0.0000E+00
     -4.952  0.0000E+00  0.0000E+00  0.0000E+00
     -4.871  0.6018E+00  0.3899E-01  0.0000E+00
     -4.790  0.2037E+00  0.1230E-01  0.0000E+00
     -4.709  0.0000E+00  0.0000E+00  0.0000E+00
     -4.628  0.0000E+00  0.0000E+00  0.0000E+00
     -4.547  0.0000E+00  0.0000E+00  0.0000E+00
     -4.466  0.0000E+00  0.0000E+00  0.0000E+00
     -4.386  0.0000E+00  0.0000E+00  0.0000E+00
     -4.305  0.1219E-03  0.1249E-04  0.0000E+00
     -4.224  0.1479E+00  0.1516E-01  0.0000E+00
     -4.143  0.0000E+00  0.0000E+00  0.0000E+00
     -4.062  0.6025E+00  0.5252E-01  0.0000E+00
     -3.981  0.0000E+00  0.0000E+00  0.0000E+00
     -3.900  0.1050E+00  0.1152E-01  0.0000E+00
     -3.819  0.6053E+00  0.6104E-01  0.0000E+00
     -3.739  0.8705E-13  0.7727E-14  0.0000E+00
     -3.658  0.6315E+00  0.5606E-01  0.0000E+00
     -3.577  0.0000E+00  0.0000E+00  0.0000E+00
     -3.496  0.0000E+00  0.0000E+00  0.0000E+00
     -3.415  0.0000E+00  0.0000E+00  0.0000E+00
     -3.334  0.0000E+00  0.0000E+00  0.0000E+00
     -3.253  0.0000E+00  0.0000E+00  0.0000E+00
     -3.172  0.0000E+00  0.0000E+00  0.0000E+00
     -3.092  0.5896E+00  0.9091E-01  0.0000E+00
     -3.011  0.0000E+00  0.0000E+00  0.0000E+00
     -2.930  0.6906E-03  0.8993E-04  0.0000E+00
     -2.849  0.9396E+00  0.1201E+00  0.0000E+00
     -2.768  0.0000E+00  0.0000E+00  0.0000E+00
     -2.687  0.0000E+00  0.0000E+00  0.0000E+00
     -2.606  0.0000E+00  0.0000E+00  0.0000E+00
     -2.525  0.0000E+00  0.0000E+00  0.0000E+00
     -2.445  0.0000E+00  0.0000E+00  0.0000E+00
     -2.364  0.0000E+00  0.0000E+00  0.0000E+00
     -2.283  0.0000E+00  0.0000E+00  0.0000E+00
     -2.202  0.0000E+00  0.0000E+00  0.0000E+00
     -2.121  0.0000E+00  0.0000E+00  0.0000E+00
     -2.040  0.2222E-01  0.5239E-02  0.0000E+00
     -1.959  0.1183E+00  0.2788E-01  0.0000E+00
     -1.878  0.0000E+00  0.0000E+00  0.0000E+00
     -1.798  0.0000E+00  0.0000E+00  0.0000E+00
     -1.717  0.0000E+00  0.0000E+00  0.0000E+00
     -1.636  0.0000E+00  0.0000E+00  0.0000E+00
     -1.555  0.0000E+00  0.0000E+00  0.0000E+00
     -1.474  0.0000E+00  0.0000E+00  0.0000E+00
     -1.393  0.0000E+00  0.0000E+00  0.0000E+00
     -1.312  0.0000E+00  0.0000E+00  0.0000E+00
     -1.231  0.2371E-02  0.2301E-02  0.0000E+00
     -1.151  0.4460E-01  0.4329E-01  0.0000E+00
     -1.070  0.1119E+00  0.4554E-01  0.0000E+00
     -0.989  0.4673E+00  0.1853E+00  0.0000E+00
     -0.908  0.1556E+00  0.5571E-01  0.0000E+00
     -0.827  0.3459E+00  0.2516E+00  0.0000E+00
     -0.746  0.5392E+00  0.1769E+00  0.0000E+00
     -0.665  0.0000E+00  0.0000E+00  0.0000E+00
     -0.584  0.0000E+00  0.0000E+00  0.0000E+00
     -0.504  0.0000E+00  0.0000E+00  0.0000E+00
     -0.423  0.0000E+00  0.0000E+00  0.0000E+00
     -0.342  0.0000E+00  0.0000E+00  0.0000E+00
     -0.261  0.2707E-03  0.1956E-03  0.0000E+00
     -0.180  0.3631E+00  0.2622E+00  0.0000E+00
     -0.099  0.0000E+00  0.0000E+00  0.0000E+00