    2    2    1    1
  0.2002393E+02  0.3840297E-09  0.3840297E-09  0.3840297E-09  0.5000000E-15
  1.000000000000000E-004
  CAR 
 Name                                    
      8    165      8
 
  0.0000000E+00  0.0000000E+00  0.0000000E+00  0.4901961E-02
    1       -6.194240   1.000000
    2        5.797175   1.000000
    3        5.797175   1.000000
    4        5.797175   1.000000
    5        8.310366   0.000000
    6        8.310366   0.000000
    7        8.310366   0.000000
    8        9.119485   0.000000
 
  0.1666667E+00  0.0000000E+00  0.0000000E+00  0.3921569E-01
    1       -5.831592   1.000000
    2        3.396946   1.000000
    3        5.341562   1.000000
    4        5.341562   1.000000
    5        8.084046   0.000000
    6        8.962044   0.000000
    7        8.962044   0.000000
    8       11.200341   0.000000
 
  0.3333333E+00  0.0000000E+00  0.0000000E+00  0.3921569E-01
    1       -4.810303   1.000000
    2        0.429552   1.000000
    3        4.790460   1.000000
    4        4.790460   1.000000
    5        7.486686   0.000000
    6        9.241998   0.000000
    7        9.241998   0.000000
    8       13.502253   0.000000
 
  0.5000000E+00  0.0000000E+00  0.0000000E+00  0.1960784E-01
    1       -3.844049   1.000000
    2       -1.219828   1.000000
    3        4.592860   1.000000
    4        4.592861   1.000000
    5        7.259940   0.000000
    6        9.065419   0.000000
    7        9.065419   0.000000
    8       13.305248   0.000000
 
  0.1666667E+00  0.1666667E+00  0.0000000E+00  0.2941176E-01
    1       -5.708266   1.000000
    2        3.756019   1.000000
    3        4.588380   1.000000
    4        4.588380   1.000000
    5        7.417280   0.000000
    6       10.019302   0.000000
    7       10.105825   0.000000
    8       10.105826   0.000000
 
  0.3333333E+00  0.1666667E+00  0.0000000E+00  0.1176471E+00
    1       -4.889151   1.000000
    2        1.343195   1.000000
    3        3.778349   1.000000
    4        4.033414   1.000000
    5        7.673941   0.000000
    6        9.785389   0.000000
    7       10.248908   0.000000
    8       10.826349   0.000000
 
  0.5000000E+00  0.1666667E+00  0.0000000E+00  0.1176471E+00
    1       -3.686907   1.000000
    2       -0.843667   1.000000
    3        2.987445   1.000000
    4        4.006063   1.000000
    5        7.743965   0.000000
    6        9.845657   0.000000
    7       10.357778   0.000000
    8       12.136380   0.000000
 
 -0.3333333E+00  0.1666667E+00  0.0000000E+00  0.1176471E+00
    1       -4.076321   1.000000
    2       -0.238459   1.000000
    3        2.711371   1.000000
    4        4.490971   1.000000
    5        8.167518   0.000000
    6        9.842723   0.000000
    7        9.965736   0.000000
    8       13.029065   0.000000
 
 -0.1666667E+00  0.1666667E+00  0.0000000E+00  0.5882353E-01
    1       -5.240683   1.000000
    2        2.066748   1.000000
    3        3.344800   1.000000
    4        5.230858   1.000000
    5        8.783203   0.000000
    6        9.305735   0.000000
    7        9.576622   0.000000
    8       11.374705   0.000000
 
  0.3333333E+00  0.3333333E+00  0.0000000E+00  0.2941176E-01
    1       -4.282439   1.000000
    2        0.781870   1.000000
    3        3.357281   1.000000
    4        3.357281   1.000000
    5        6.412475   0.000000
    6        7.663972   0.000000
    7       13.021273   0.000000
    8       13.021275   0.000000
 
  0.5000000E+00  0.3333333E+00  0.0000000E+00  0.1176471E+00
    1       -3.111674   1.000000
    2       -0.776943   1.000000
    3        2.113757   1.000000
    4        3.221101   1.000000
    5        6.742039   0.000000
    6        8.414559   0.000000
    7       13.196821   0.000000
    8       13.223583   0.000000
 
 -0.3333333E+00  0.3333333E+00  0.0000000E+00  0.5882353E-01
    1       -2.909673   1.000000
    2       -0.986852   1.000000
    3        1.319065   1.000000
    4        3.667526   1.000000
    5        7.252313   0.000000
    6       11.502692   0.000000
    7       12.225089   0.000000
    8       12.818184   0.000000
 
  0.5000000E+00  0.5000000E+00  0.0000000E+00  0.1470588E-01
    1       -2.033097   1.000000
    2       -2.033097   1.000000
    3        2.921066   1.000000
    4        2.921066   1.000000
    5        6.381803   0.000000
    6        6.381803   0.000000
    7       15.858170   0.000000
    8       15.859743   0.000000
 
  0.5000000E+00  0.3333333E+00  0.1666667E+00  0.1176471E+00
    1       -3.893699   1.000000
    2        0.144768   1.000000
    3        2.176415   1.000000
    4        3.471157   1.000000
    5        8.569017   0.000000
    6        9.402462   0.000000
    7        9.973254   0.000000
    8       12.815993   0.000000
 
 -0.3333333E+00  0.3333333E+00  0.1666667E+00  0.1176471E+00
    1       -2.899045   1.000000
    2       -1.064534   1.000000
    3        1.733294   1.000000
    4        2.996146   1.000000
    5        9.052346   0.000000
    6        9.283404   0.000000
    7       11.812708   0.000000
    8       12.250694   0.000000
 
  0.0000000E+00  0.0000000E+00  0.0000000E+00  0.0000000E+00
    1       -6.194240   1.000000
    2        5.797175   1.000000
    3        5.797175   1.000000
    4        5.797175   1.000000
    5        8.310366   0.000000
    6        8.310366   0.000000
    7        8.310366   0.000000
    8        9.119485   0.000000
 
  0.1388889E-01  0.0000000E+00  0.1388889E-01  0.0000000E+00
    1       -6.190856   1.000000
    2        5.773684   1.000000
    3        5.782071   1.000000
    4        5.782071   1.000000
    5        8.301469   0.000000
    6        8.329618   0.000000
    7        8.329618   0.000000
    8        9.142544   0.000000
 
  0.2777778E-01  0.0000000E+00  0.2777778E-01  0.0000000E+00
    1       -6.180690   1.000000
    2        5.705189   1.000000
    3        5.738140   1.000000
    4        5.738140   1.000000
    5        8.275126   0.000000
    6        8.385980   0.000000
    7        8.385980   0.000000
    8        9.209428   0.000000
 
  0.4166666E-01  0.0000000E+00  0.4166666E-01  0.0000000E+00
    1       -6.163744   1.000000
    2        5.596906   1.000000
    3        5.669047   1.000000
    4        5.669047   1.000000
    5        8.232366   0.000000
    6        8.475767   0.000000
    7        8.475767   0.000000
    8        9.313956   0.000000
 
  0.5555555E-01  0.0000000E+00  0.5555555E-01  0.0000000E+00
    1       -6.140021   1.000000
    2        5.455658   1.000000
    3        5.579629   1.000000
    4        5.579629   1.000000
    5        8.174750   0.000000
    6        8.594112   0.000000
    7        8.594112   0.000000
    8        9.447507   0.000000
 
  0.6944444E-01  0.0000000E+00  0.6944444E-01  0.0000000E+00
    1       -6.109529   1.000000
    2        5.288275   1.000000
    3        5.474818   1.000000
    4        5.474818   1.000000
    5        8.104204   0.000000
    6        8.736046   0.000000
    7        8.736046   0.000000
    8        9.600183   0.000000
 
  0.8333333E-01  0.0000000E+00  0.8333333E-01  0.0000000E+00
    1       -6.072289   1.000000
    2        5.100742   1.000000
    3        5.358993   1.000000
    4        5.358993   1.000000
    5        8.022823   0.000000
    6        8.897120   0.000000
    7        8.897120   0.000000
    8        9.760975   0.000000
 
  0.9722222E-01  0.0000000E+00  0.9722222E-01  0.0000000E+00
    1       -6.028328   1.000000
    2        4.897890   1.000000
    3        5.235769   1.000000
    4        5.235769   1.000000
    5        7.932739   0.000000
    6        9.073667   0.000000
    7        9.073667   0.000000
    8        9.916937   0.000000
 
  0.1111111E+00  0.0000000E+00  0.1111111E+00  0.0000000E+00
    1       -5.977654   1.000000
    2        4.683428   1.000000
    3        5.107986   1.000000
    4        5.107986   1.000000
    5        7.835996   0.000000
    6        9.262763   0.000000
    7        9.262763   0.000000
    8       10.051623   0.000000
 
  0.1250000E+00  0.0000000E+00  0.1250000E+00  0.0000000E+00
    1       -5.920279   1.000000
    2        4.460161   1.000000
    3        4.977848   1.000000
    4        4.977848   1.000000
    5        7.734481   0.000000
    6        9.462127   0.000000
    7        9.462131   0.000000
    8       10.144371   0.000000
 
  0.1388889E+00  0.0000000E+00  0.1388889E+00  0.0000000E+00
    1       -5.856239   1.000000
    2        4.230191   1.000000
    3        4.847043   1.000000
    4        4.847043   1.000000
    5        7.629890   0.000000
    6        9.669968   0.000000
    7        9.669968   0.000000
    8       10.174109   0.000000
 
  0.1527778E+00  0.0000000E+00  0.1527778E+00  0.0000000E+00
    1       -5.785559   1.000000
    2        3.995081   1.000000
    3        4.716881   1.000000
    4        4.716881   1.000000
    5        7.523713   0.000000
    6        9.884901   0.000000
    7        9.884901   0.000000
    8       10.130102   0.000000
 
  0.1666667E+00  0.0000000E+00  0.1666667E+00  0.0000000E+00
    1       -5.708266   1.000000
    2        3.756019   1.000000
    3        4.588380   1.000000
    4        4.588380   1.000000
    5        7.417281   0.000000
    6       10.019302   0.000000
    7       10.105825   0.000000
    8       10.105825   0.000000
 
  0.1805555E+00  0.0000000E+00  0.1805555E+00  0.0000000E+00
    1       -5.624413   1.000000
    2        3.513907   1.000000
    3        4.462335   1.000000
    4        4.462335   1.000000
    5        7.311714   0.000000
    6        9.859865   0.000000
    7       10.331858   0.000000
    8       10.331859   0.000000
 
  0.1944444E+00  0.0000000E+00  0.1944444E+00  0.0000000E+00
    1       -5.534028   1.000000
    2        3.269437   1.000000
    3        4.339378   1.000000
    4        4.339378   1.000000
    5        7.207982   0.000000
    6        9.670029   0.000000
    7       10.562289   0.000000
    8       10.562289   0.000000
 
  0.2083333E+00  0.0000000E+00  0.2083333E+00  0.0000000E+00
    1       -5.437154   1.000000
    2        3.023152   1.000000
    3        4.220014   1.000000
    4        4.220015   1.000000
    5        7.106938   0.000000
    6        9.463292   0.000000
    7       10.796541   0.000000
    8       10.796559   0.000000
 
  0.2222222E+00  0.0000000E+00  0.2222222E+00  0.0000000E+00
    1       -5.333833   1.000000
    2        2.775497   1.000000
    3        4.104663   1.000000
    4        4.104663   1.000000
    5        7.009308   0.000000
    6        9.248635   0.000000
    7       11.034142   0.000000
    8       11.034143   0.000000
 
  0.2361111E+00  0.0000000E+00  0.2361111E+00  0.0000000E+00
    1       -5.224116   1.000000
    2        2.526830   1.000000
    3        3.993663   1.000000
    4        3.993663   1.000000
    5        6.915721   0.000000
    6        9.031879   0.000000
    7       11.274706   0.000000
    8       11.274707   0.000000
 
  0.2500000E+00  0.0000000E+00  0.2500000E+00  0.0000000E+00
    1       -5.108059   1.000000
    2        2.277469   1.000000
    3        3.887294   1.000000
    4        3.887294   1.000000
    5        6.826726   0.000000
    6        8.816850   0.000000
    7       11.517912   0.000000
    8       11.517914   0.000000
 
  0.2638889E+00  0.0000000E+00  0.2638889E+00  0.0000000E+00
    1       -4.985737   1.000000
    2        2.027692   1.000000
    3        3.785789   1.000000
    4        3.785789   1.000000
    5        6.742791   0.000000
    6        8.606121   0.000000
    7       11.763495   0.000000
    8       11.763495   0.000000
 
  0.2777778E+00  0.0000000E+00  0.2777778E+00  0.0000000E+00
    1       -4.857208   1.000000
    2        1.777795   1.000000
    3        3.689353   1.000000
    4        3.689353   1.000000
    5        6.664358   0.000000
    6        8.401480   0.000000
    7       12.011262   0.000000
    8       12.011273   0.000000
 
  0.2916667E+00  0.0000000E+00  0.2916667E+00  0.0000000E+00
    1       -4.722535   1.000000
    2        1.528017   1.000000
    3        3.598151   1.000000
    4        3.598151   1.000000
    5        6.591792   0.000000
    6        8.204173   0.000000
    7       12.261046   0.000000
    8       12.261046   0.000000
 
  0.3055556E+00  0.0000000E+00  0.3055556E+00  0.0000000E+00
    1       -4.581794   1.000000
    2        1.278608   1.000000
    3        3.512326   1.000000
    4        3.512326   1.000000
    5        6.525427   0.000000
    6        8.015093   0.000000
    7       12.512713   0.000000
    8       12.512762   0.000000
 
  0.3194444E+00  0.0000000E+00  0.3194444E+00  0.0000000E+00
    1       -4.435066   1.000000
    2        1.029810   1.000000
    3        3.432001   1.000000
    4        3.432001   1.000000
    5        6.465563   0.000000
    6        7.834875   0.000000
    7       12.766153   0.000000
    8       12.766157   0.000000
 
  0.3333333E+00  0.0000000E+00  0.3333333E+00  0.0000000E+00
    1       -4.282439   1.000000
    2        0.781871   1.000000
    3        3.357281   1.000000
    4        3.357281   1.000000
    5        6.412475   0.000000
    6        7.663973   0.000000
    7       13.021272   0.000000
    8       13.021284   0.000000
 
  0.3472222E+00  0.0000000E+00  0.3472222E+00  0.0000000E+00
    1       -4.124015   1.000000
    2        0.535045   1.000000
    3        3.288257   1.000000
    4        3.288257   1.000000
    5        6.366411   0.000000
    6        7.502695   0.000000
    7       13.277971   0.000000
    8       13.277972   0.000000
 
  0.3611111E+00  0.0000000E+00  0.3611111E+00  0.0000000E+00
    1       -3.959902   1.000000
    2        0.289606   1.000000
    3        3.225009   1.000000
    4        3.225009   1.000000
    5        6.327610   0.000000
    6        7.351252   0.000000
    7       13.536164   0.000000
    8       13.536165   0.000000
 
  0.3750000E+00  0.0000000E+00  0.3750000E+00  0.0000000E+00
    1       -3.790195   1.000000
    2        0.045801   1.000000
    3        3.167604   1.000000
    4        3.167604   1.000000
    5        6.296285   0.000000
    6        7.209764   0.000000
    7       13.795697   0.000000
    8       13.795700   0.000000
 
  0.3888889E+00  0.0000000E+00  0.3888889E+00  0.0000000E+00
    1       -3.615010   1.000000
    2       -0.196108   1.000000
    3        3.116100   1.000000
    4        3.116100   1.000000
    5        6.272640   0.000000
    6        7.078294   0.000000
    7       14.056368   0.000000
    8       14.056428   0.000000
 
  0.4027778E+00  0.0000000E+00  0.4027778E+00  0.0000000E+00
    1       -3.434459   1.000000
    2       -0.435867   1.000000
    3        3.070547   1.000000
    4        3.070547   1.000000
    5        6.256870   0.000000
    6        6.956854   0.000000
    7       14.317838   0.000000
    8       14.317849   0.000000
 
  0.4166667E+00  0.0000000E+00  0.4166667E+00  0.0000000E+00
    1       -3.248696   1.000000
    2       -0.673230   1.000000
    3        3.030989   1.000000
    4        3.030989   1.000000
    5        6.249159   0.000000
    6        6.845407   0.000000
    7       14.579539   0.000000
    8       14.579598   0.000000
 
  0.4305555E+00  0.0000000E+00  0.4305555E+00  0.0000000E+00
    1       -3.057854   1.000000
    2       -0.907929   1.000000
    3        2.997461   1.000000
    4        2.997461   1.000000
    5        6.249687   0.000000
    6        6.743905   0.000000
    7       14.840441   0.000000
    8       14.840443   0.000000
 
  0.4444444E+00  0.0000000E+00  0.4444444E+00  0.0000000E+00
    1       -2.862099   1.000000
    2       -1.139719   1.000000
    3        2.969990   1.000000
    4        2.969990   1.000000
    5        6.258628   0.000000
    6        6.652242   0.000000
    7       15.098584   0.000000
    8       15.098590   0.000000
 
  0.4583333E+00  0.0000000E+00  0.4583333E+00  0.0000000E+00
    1       -2.661571   1.000000
    2       -1.368361   1.000000
    3        2.948599   1.000000
    4        2.948599   1.000000
    5        6.276149   0.000000
    6        6.570324   0.000000
    7       15.349842   0.000000
    8       15.349894   0.000000
 
  0.4722222E+00  0.0000000E+00  0.4722222E+00  0.0000000E+00
    1       -2.456442   1.000000
    2       -1.593618   1.000000
    3        2.933309   1.000000
    4        2.933309   1.000000
    5        6.302414   0.000000
    6        6.498034   0.000000
    7       15.584479   0.000000
    8       15.584614   0.000000
 
  0.4861111E+00  0.0000000E+00  0.4861111E+00  0.0000000E+00
    1       -2.246887   1.000000
    2       -1.815258   1.000000
    3        2.924130   1.000000
    4        2.924130   1.000000
    5        6.337581   0.000000
    6        6.435240   0.000000
    7       15.775594   0.000000
    8       15.777185   0.000000
 
  0.5000000E+00  0.0000000E+00  0.5000000E+00  0.0000000E+00
    1       -2.033097   1.000000
    2       -2.033096   1.000000
    3        2.921066   1.000000
    4        2.921066   1.000000
    5        6.381803   0.000000
    6        6.381804   0.000000
    7       15.858139   0.000000
    8       15.862708   0.000000
 
  0.4945652E+00  0.1630435E-01  0.5108696E+00  0.0000000E+00
    1       -2.115501   1.000000
    2       -1.946838   1.000000
    3        2.906335   1.000000
    4        2.906917   1.000000
    5        6.390200   0.000000
    6        6.428051   0.000000
    7       15.789952   0.000000
    8       15.814537   0.000000
 
  0.4891304E+00  0.3260870E-01  0.5217391E+00  0.0000000E+00
    1       -2.193359   1.000000
    2       -1.857611   1.000000
    3        2.862657   1.000000
    4        2.867189   1.000000
    5        6.452625   0.000000
    6        6.526412   0.000000
    7       15.550902   0.000000
    8       15.710242   0.000000
 
  0.4836957E+00  0.4891304E-01  0.5326087E+00  0.0000000E+00
    1       -2.266109   1.000000
    2       -1.766478   1.000000
    3        2.793029   1.000000
    4        2.807674   1.000000
    5        6.565516   0.000000
    6        6.672020   0.000000
    7       15.167494   0.000000
    8       15.563338   0.000000
 
  0.4782609E+00  0.6521739E-01  0.5434783E+00  0.0000000E+00
    1       -2.333310   1.000000
    2       -1.674729   1.000000
    3        2.702442   1.000000
    4        2.735399   1.000000
    5        6.723397   0.000000
    6        6.858930   0.000000
    7       14.708721   0.000000
    8       15.370346   0.000000
 
  0.4728261E+00  0.8152174E-01  0.5543478E+00  0.0000000E+00
    1       -2.394627   1.000000
    2       -1.583878   1.000000
    3        2.596594   1.000000
    4        2.657541   1.000000
    5        6.920132   0.000000
    6        7.081206   0.000000
    7       14.214433   0.000000
    8       15.129870   0.000000
 
  0.4673913E+00  0.9782609E-01  0.5652174E+00  0.0000000E+00
    1       -2.449813   1.000000
    2       -1.495690   1.000000
    3        2.480943   1.000000
    4        2.580787   1.000000
    5        7.149859   0.000000
    6        7.333533   0.000000
    7       13.704465   0.000000
    8       14.851818   0.000000
 
  0.4619565E+00  0.1141304E+00  0.5760869E+00  0.0000000E+00
    1       -2.498685   1.000000
    2       -1.412153   1.000000
    3        2.360232   1.000000
    4        2.511103   1.000000
    5        7.407469   0.000000
    6        7.611415   0.000000
    7       13.189012   0.000000
    8       14.548579   0.000000
 
  0.4565218E+00  0.1304348E+00  0.5869565E+00  0.0000000E+00
    1       -2.541137   1.000000
    2       -1.335408   1.000000
    3        2.238353   1.000000
    4        2.453667   1.000000
    5        7.688694   0.000000
    6        7.911078   0.000000
    7       12.674089   0.000000
    8       14.232175   0.000000
 
  0.4510870E+00  0.1467391E+00  0.5978261E+00  0.0000000E+00
    1       -2.577110   1.000000
    2       -1.267624   1.000000
    3        2.118411   1.000000
    4        2.412860   1.000000
    5        7.990026   0.000000
    6        8.229190   0.000000
    7       12.163929   0.000000
    8       13.910084   0.000000
 
  0.4456522E+00  0.1630435E+00  0.6086956E+00  0.0000000E+00
    1       -2.606593   1.000000
    2       -1.210819   1.000000
    3        2.002869   1.000000
    4        2.392207   1.000000
    5        8.308547   0.000000
    6        8.562352   0.000000
    7       11.662375   0.000000
    8       13.587220   0.000000
 
  0.4402174E+00  0.1793478E+00  0.6195652E+00  0.0000000E+00
    1       -2.629620   1.000000
    2       -1.166634   1.000000
    3        1.893666   1.000000
    4        2.394251   1.000000
    5        8.641744   0.000000
    6        8.905771   0.000000
    7       11.174583   0.000000
    8       13.266822   0.000000
 
  0.4347826E+00  0.1956522E+00  0.6304348E+00  0.0000000E+00
    1       -2.646254   1.000000
    2       -1.136109   1.000000
    3        1.792350   1.000000
    4        2.420396   1.000000
    5        8.987292   0.000000
    6        9.248060   0.000000
    7       10.712425   0.000000
    8       12.951337   0.000000
 
  0.4293478E+00  0.2119565E+00  0.6413044E+00  0.0000000E+00
    1       -2.656586   1.000000
    2       -1.119539   1.000000
    3        1.700162   1.000000
    4        2.470774   1.000000
    5        9.342758   0.000000
    6        9.536748   0.000000
    7       10.329086   0.000000
    8       12.642999   0.000000
 
  0.4239130E+00  0.2282609E+00  0.6521739E+00  0.0000000E+00
    1       -2.660723   1.000000
    2       -1.116434   1.000000
    3        1.618113   1.000000
    4        2.544196   1.000000
    5        9.510364   0.000000
    6        9.705081   0.000000
    7       10.287104   0.000000
    8       12.344504   0.000000
 
  0.4184782E+00  0.2445652E+00  0.6630435E+00  0.0000000E+00
    1       -2.658799   1.000000
    2       -1.125631   1.000000
    3        1.547026   1.000000
    4        2.638147   1.000000
    5        9.161841   0.000000
    6       10.069147   0.000000
    7       10.595079   0.000000
    8       12.060446   0.000000
 
  0.4130435E+00  0.2608696E+00  0.6739131E+00  0.0000000E+00
    1       -2.650950   1.000000
    2       -1.145520   1.000000
    3        1.487574   1.000000
    4        2.748833   1.000000
    5        8.762110   0.000000
    6       10.422931   0.000000
    7       10.984259   0.000000
    8       11.802208   0.000000
 
  0.4076087E+00  0.2771739E+00  0.6847826E+00  0.0000000E+00
    1       -2.637315   1.000000
    2       -1.174257   1.000000
    3        1.440307   1.000000
    4        2.871149   1.000000
    5        8.369515   0.000000
    6       10.725606   0.000000
    7       11.399401   0.000000
    8       11.609793   0.000000
 
  0.4021739E+00  0.2934783E+00  0.6956522E+00  0.0000000E+00
    1       -2.618033   1.000000
    2       -1.209986   1.000000
    3        1.405671   1.000000
    4        2.998523   1.000000
    5        7.999782   0.000000
    6       10.843351   0.000000
    7       11.615956   0.000000
    8       11.829152   0.000000
 
  0.3967391E+00  0.3097826E+00  0.7065217E+00  0.0000000E+00
    1       -2.593228   1.000000
    2       -1.250988   1.000000
    3        1.384014   1.000000
    4        3.122570   1.000000
    5        7.663238   0.000000
    6       10.721060   0.000000
    7       11.874243   0.000000
    8       12.269222   0.000000
 
  0.3913043E+00  0.3260870E+00  0.7173913E+00  0.0000000E+00
    1       -2.563015   1.000000
    2       -1.295810   1.000000
    3        1.375594   1.000000
    4        3.232736   1.000000
    5        7.370640   0.000000
    6       10.512060   0.000000
    7       12.228662   0.000000
    8       12.716838   0.000000
 
  0.3858696E+00  0.3423913E+00  0.7282609E+00  0.0000000E+00
    1       -2.527482   1.000000
    2       -1.343286   1.000000
    3        1.380588   1.000000
    4        3.316312   1.000000
    5        7.134471   0.000000
    6       10.284891   0.000000
    7       12.604704   0.000000
    8       13.169742   0.000000
 
  0.3804348E+00  0.3586957E+00  0.7391304E+00  0.0000000E+00
    1       -2.486698   1.000000
    2       -1.392576   1.000000
    3        1.399074   1.000000
    4        3.359674   1.000000
    5        6.968119   0.000000
    6       10.057154   0.000000
    7       12.965369   0.000000
    8       13.628673   0.000000
 
  0.3750000E+00  0.3750000E+00  0.7500000E+00  0.0000000E+00
    1       -2.440688   1.000000
    2       -1.443158   1.000000
    3        1.431060   1.000000
    4        3.351477   1.000000
    5        6.882849   0.000000
    6        9.834652   0.000000
    7       13.217520   0.000000
    8       13.748520   0.000000
 
  0.3668478E+00  0.3668478E+00  0.7336956E+00  0.0000000E+00
    1       -2.517592   1.000000
    2       -1.363979   1.000000
    3        1.380128   1.000000
    4        3.407454   1.000000
    5        6.948238   0.000000
    6       10.165004   0.000000
    7       13.016927   0.000000
    8       13.541028   0.000000
 
  0.3586957E+00  0.3586957E+00  0.7173913E+00  0.0000000E+00
    1       -2.602260   1.000000
    2       -1.279873   1.000000
    3        1.343539   1.000000
    4        3.466408   1.000000
    5        7.017145   0.000000
    6       10.498037   0.000000
    7       12.819241   0.000000
    8       13.343916   0.000000
 
  0.3505435E+00  0.3505435E+00  0.7010869E+00  0.0000000E+00
    1       -2.694264   1.000000
    2       -1.190855   1.000000
    3        1.321187   1.000000
    4        3.528222   1.000000
    5        7.089423   0.000000
    6       10.831025   0.000000
    7       12.624714   0.000000
    8       13.155721   0.000000
 
  0.3423913E+00  0.3423913E+00  0.6847826E+00  0.0000000E+00
    1       -2.792984   1.000000
    2       -1.096938   1.000000
    3        1.312748   1.000000
    4        3.592770   1.000000
    5        7.164906   0.000000
    6       11.158879   0.000000
    7       12.433483   0.000000
    8       12.981539   0.000000
 
  0.3342391E+00  0.3342391E+00  0.6684783E+00  0.0000000E+00
    1       -2.897702   1.000000
    2       -0.998130   1.000000
    3        1.317713   1.000000
    4        3.659913   1.000000
    5        7.243413   0.000000
    6       11.470120   0.000000
    7       12.245709   0.000000
    8       12.832308   0.000000
 
  0.3260870E+00  0.3260870E+00  0.6521739E+00  0.0000000E+00
    1       -3.007610   1.000000
    2       -0.894470   1.000000
    3        1.335448   1.000000
    4        3.729485   1.000000
    5        7.324724   0.000000
    6       11.734875   0.000000
    7       12.061629   0.000000
    8       12.736999   0.000000
 
  0.3179348E+00  0.3179348E+00  0.6358696E+00  0.0000000E+00
    1       -3.121864   1.000000
    2       -0.785966   1.000000
    3        1.365253   1.000000
    4        3.801325   1.000000
    5        7.408600   0.000000
    6       11.881298   0.000000
    7       11.886460   0.000000
    8       12.764342   0.000000
 
  0.3097826E+00  0.3097826E+00  0.6195652E+00  0.0000000E+00
    1       -3.239613   1.000000
    2       -0.672638   1.000000
    3        1.406393   1.000000
    4        3.875249   1.000000
    5        7.494765   0.000000
    6       11.704865   0.000000
    7       11.882668   0.000000
    8       12.739415   0.000000
 
  0.3016304E+00  0.3016304E+00  0.6032609E+00  0.0000000E+00
    1       -3.360040   1.000000
    2       -0.554511   1.000000
    3        1.458129   1.000000
    4        3.951059   1.000000
    5        7.582898   0.000000
    6       11.532394   0.000000
    7       11.784578   0.000000
    8       12.601542   0.000000
 
  0.2934782E+00  0.2934782E+00  0.5869565E+00  0.0000000E+00
    1       -3.482377   1.000000
    2       -0.431608   1.000000
    3        1.519748   1.000000
    4        4.028536   1.000000
    5        7.672637   0.000000
    6       11.363986   0.000000
    7       11.650269   0.000000
    8       12.468979   0.000000
 
  0.2853261E+00  0.2853261E+00  0.5706522E+00  0.0000000E+00
    1       -3.605885   1.000000
    2       -0.303956   1.000000
    3        1.590572   1.000000
    4        4.107448   1.000000
    5        7.763565   0.000000
    6       11.199729   0.000000
    7       11.503092   0.000000
    8       12.341985   0.000000
 
  0.2771739E+00  0.2771739E+00  0.5543479E+00  0.0000000E+00
    1       -3.729909   1.000000
    2       -0.171584   1.000000
    3        1.669965   1.000000
    4        4.187541   1.000000
    5        7.855203   0.000000
    6       11.039633   0.000000
    7       11.351864   0.000000
    8       12.219522   0.000000
 
  0.2690218E+00  0.2690218E+00  0.5380435E+00  0.0000000E+00
    1       -3.853853   1.000000
    2       -0.034521   1.000000
    3        1.757338   1.000000
    4        4.268546   1.000000
    5        7.947007   0.000000
    6       10.883810   0.000000
    7       11.200389   0.000000
    8       12.105866   0.000000
 
  0.2608696E+00  0.2608696E+00  0.5217391E+00  0.0000000E+00
    1       -3.977184   1.000000
    2        0.107193   1.000000
    3        1.852142   1.000000
    4        4.350183   1.000000
    5        8.038353   0.000000
    6       10.732289   0.000000
    7       11.050505   0.000000
    8       11.994817   0.000000
 
  0.2527174E+00  0.2527174E+00  0.5054348E+00  0.0000000E+00
    1       -4.099428   1.000000
    2        0.253524   1.000000
    3        1.953874   1.000000
    4        4.432146   1.000000
    5        8.128538   0.000000
    6       10.585118   0.000000
    7       10.903214   0.000000
    8       11.893118   0.000000
 
  0.2445652E+00  0.2445652E+00  0.4891304E+00  0.0000000E+00
    1       -4.220162   1.000000
    2        0.404435   1.000000
    3        2.062073   1.000000
    4        4.514116   1.000000
    5        8.216773   0.000000
    6       10.442341   0.000000
    7       10.759081   0.000000
    8       11.799235   0.000000
 