   8   8   1   0
  0.3405475E+02  0.6482700E-09  0.6482700E-09  0.6482700E-09  0.5000000E-15
  1.000000000000000E-004
  CAR 
 Name                                    
     11.20671947    -10.05813336  301      2.02194429      1.00000000
    -10.058  0.0000E+00  0.0000E+00
     -9.987  0.0000E+00  0.0000E+00
     -9.916  0.0000E+00  0.0000E+00
     -9.845  0.0000E+00  0.0000E+00
     -9.775  0.0000E+00  0.0000E+00
     -9.704  0.0000E+00  0.0000E+00
     -9.633  0.2320E-17  0.1645E-18
     -9.562  0.5432E-14  0.3852E-15
     -9.491  0.4804E-11  0.3409E-12
     -9.420  0.1590E-08  0.1131E-09
     -9.349  0.1987E-06  0.1419E-07
     -9.278  0.9483E-05  0.6864E-06
     -9.208  0.1782E-03  0.1332E-04
     -9.137  0.1437E-02  0.1152E-03
     -9.066  0.6284E-02  0.5606E-03
     -8.995  0.2027E-01  0.1998E-02
     -8.924  0.5005E-01  0.5546E-02
     -8.853  0.9071E-01  0.1198E-01
     -8.782  0.1489E+00  0.2253E-01
     -8.711  0.2552E+00  0.4062E-01
     -8.640  0.3016E+00  0.6200E-01
     -8.570  0.1873E+00  0.7527E-01
     -8.499  0.5775E-01  0.7936E-01
     -8.428  0.8411E-02  0.7996E-01
     -8.357  0.5378E-03  0.8000E-01
     -8.286  0.1417E-04  0.8000E-01
     -8.215  0.1474E-06  0.8000E-01
     -8.144  0.5915E-09  0.8000E-01
     -8.073  0.9009E-12  0.8000E-01
     -8.003  0.5256E-15  0.8000E-01
     -7.932  0.0000E+00  0.8000E-01
     -7.861  0.0000E+00  0.8000E-01
     -7.790  0.0000E+00  0.8000E-01
     -7.719  0.0000E+00  0.8000E-01
     -7.648  0.0000E+00  0.8000E-01
     -7.577  0.0000E+00  0.8000E-01
     -7.506  0.0000E+00  0.8000E-01
     -7.435  0.0000E+00  0.8000E-01
     -7.365  0.0000E+00  0.8000E-01
     -7.294  0.0000E+00  0.8000E-01
     -7.223  0.0000E+00  0.8000E-01
     -7.152  0.0000E+00  0.8000E-01
     -7.081  0.0000E+00  0.8000E-01
     -7.010  0.0000E+00  0.8000E-01
     -6.939  0.0000E+00  0.8000E-01
     -6.868  0.1621E-14  0.8000E-01
     -6.798  0.2351E-11  0.8000E-01
     -6.727  0.1359E-08  0.8000E-01
     -6.656  0.3186E-06  0.8000E-01
     -6.585  0.3088E-04  0.8000E-01
     -6.514  0.1260E-02  0.8009E-01
     -6.443  0.2207E-01  0.8166E-01
     -6.372  0.1697E+00  0.9369E-01
     -6.301  0.5944E+00  0.1358E+00
     -6.230  0.1050E+01  0.2102E+00
     -6.160  0.1201E+01  0.2953E+00
     -6.089  0.1042E+01  0.3692E+00
     -6.018  0.5587E+00  0.4088E+00
     -5.947  0.1938E+00  0.4225E+00
     -5.876  0.1464E+00  0.4329E+00
     -5.805  0.2063E+00  0.4475E+00
     -5.734  0.1994E+00  0.4616E+00
     -5.663  0.1486E+00  0.4722E+00
     -5.593  0.8265E-01  0.4780E+00
     -5.522  0.2434E-01  0.4798E+00
     -5.451  0.3151E-02  0.4800E+00
     -5.380  0.1682E-03  0.4800E+00
     -5.309  0.3579E-05  0.4800E+00
     -5.238  0.2967E-07  0.4800E+00
     -5.167  0.9417E-10  0.4800E+00
     -5.096  0.1130E-12  0.4800E+00
     -5.025  0.5569E-16  0.4800E+00
     -4.955  0.0000E+00  0.4800E+00
     -4.884  0.0000E+00  0.4800E+00
     -4.813  0.0000E+00  0.4800E+00
     -4.742  0.0000E+00  0.4800E+00
     -4.671  0.0000E+00  0.4800E+00
     -4.600  0.0000E+00  0.4800E+00
     -4.529  0.0000E+00  0.4800E+00
     -4.458  0.0000E+00  0.4800E+00
     -4.388  0.0000E+00  0.4800E+00
     -4.317  0.0000E+00  0.4800E+00
     -4.246  0.0000E+00  0.4800E+00
     -4.175  0.0000E+00  0.4800E+00
     -4.104  0.0000E+00  0.4800E+00
     -4.033  0.0000E+00  0.4800E+00
     -3.962  0.0000E+00  0.4800E+00
     -3.891  0.0000E+00  0.4800E+00
     -3.820  0.0000E+00  0.4800E+00
     -3.750  0.0000E+00  0.4800E+00
     -3.679  0.0000E+00  0.4800E+00
     -3.608  0.0000E+00  0.4800E+00
     -3.537  0.0000E+00  0.4800E+00
     -3.466  0.0000E+00  0.4800E+00
     -3.395  0.0000E+00  0.4800E+00
     -3.324  0.0000E+00  0.4800E+00
     -3.253  0.0000E+00  0.4800E+00
     -3.182  0.0000E+00  0.4800E+00
     -3.112  0.0000E+00  0.4800E+00
     -3.041  0.0000E+00  0.4800E+00
     -2.970  0.0000E+00  0.4800E+00
     -2.899  0.0000E+00  0.4800E+00
     -2.828  0.1740E-17  0.4800E+00
     -2.757  0.6392E-14  0.4800E+00
     -2.686  0.6414E-11  0.4800E+00
     -2.615  0.2411E-08  0.4800E+00
     -2.545  0.3431E-06  0.4800E+00
     -2.474  0.1889E-04  0.4800E+00
     -2.403  0.4246E-03  0.4800E+00
     -2.332  0.4435E-02  0.4803E+00
     -2.261  0.2619E-01  0.4822E+00
     -2.190  0.9291E-01  0.4888E+00
     -2.119  0.1743E+00  0.5011E+00
     -2.048  0.1563E+00  0.5122E+00
     -1.977  0.6572E-01  0.5169E+00
     -1.907  0.2178E-01  0.5184E+00
     -1.836  0.4838E-01  0.5219E+00
     -1.765  0.9411E-01  0.5285E+00
     -1.694  0.7788E-01  0.5340E+00
     -1.623  0.4515E-01  0.5372E+00
     -1.552  0.5213E-01  0.5409E+00
     -1.481  0.4720E-01  0.5443E+00
     -1.410  0.1944E-01  0.5457E+00
     -1.340  0.3433E-02  0.5459E+00
     -1.269  0.2525E-03  0.5459E+00
     -1.198  0.7508E-05  0.5459E+00
     -1.127  0.1314E-05  0.5459E+00
     -1.056  0.6717E-04  0.5459E+00
     -0.985  0.1412E-02  0.5460E+00
     -0.914  0.1152E-01  0.5468E+00
     -0.843  0.3691E-01  0.5495E+00
     -0.772  0.4709E-01  0.5528E+00
     -0.702  0.2720E-01  0.5547E+00
     -0.631  0.2506E-01  0.5565E+00
     -0.560  0.4564E-01  0.5597E+00
     -0.489  0.3994E-01  0.5626E+00
     -0.418  0.1426E-01  0.5636E+00
     -0.347  0.6204E-02  0.5640E+00
     -0.276  0.2454E-01  0.5658E+00
     -0.205  0.6841E-01  0.5706E+00
     -0.135  0.1265E+00  0.5796E+00
     -0.064  0.1587E+00  0.5908E+00
      0.007  0.1153E+00  0.5990E+00
      0.078  0.6786E-01  0.6038E+00
      0.149  0.5179E-01  0.6075E+00
      0.220  0.6478E-01  0.6121E+00
      0.291  0.1003E+00  0.6192E+00
      0.362  0.9314E-01  0.6258E+00
      0.433  0.7330E-01  0.6310E+00
      0.503  0.8839E-01  0.6372E+00
      0.574  0.1520E+00  0.6480E+00
      0.645  0.1867E+00  0.6613E+00
      0.716  0.1436E+00  0.6714E+00
      0.787  0.1181E+00  0.6798E+00
      0.858  0.8438E-01  0.6858E+00
      0.929  0.2902E-01  0.6878E+00
      1.000  0.4497E-02  0.6882E+00
      1.070  0.7240E-02  0.6887E+00
      1.141  0.4262E-01  0.6917E+00
      1.212  0.1023E+00  0.6990E+00
      1.283  0.9959E-01  0.7060E+00
      1.354  0.5176E-01  0.7097E+00
      1.425  0.4636E-01  0.7130E+00
      1.496  0.4498E-01  0.7162E+00
      1.567  0.1962E-01  0.7175E+00
      1.638  0.5663E-02  0.7179E+00
      1.708  0.8652E-02  0.7186E+00
      1.779  0.1195E-01  0.7194E+00
      1.850  0.6720E-02  0.7199E+00
      1.921  0.1493E-02  0.7200E+00
      1.992  0.1299E-03  0.7200E+00
      2.063  0.1110E-04  0.7200E+00
      2.134  0.1347E-03  0.7200E+00
      2.205  0.1045E-02  0.7201E+00
      2.275  0.3188E-02  0.7203E+00
      2.346  0.3853E-02  0.7206E+00
      2.417  0.1847E-02  0.7207E+00
      2.488  0.3495E-03  0.7207E+00
      2.559  0.2581E-04  0.7207E+00
      2.630  0.7353E-06  0.7207E+00
      2.701  0.7987E-08  0.7207E+00
      2.772  0.3277E-10  0.7207E+00
      2.843  0.5043E-13  0.7207E+00
      2.913  0.2901E-16  0.7207E+00
      2.984  0.4641E-17  0.7207E+00
      3.055  0.1779E-13  0.7207E+00
      3.126  0.1773E-10  0.7207E+00
      3.197  0.6613E-08  0.7207E+00
      3.268  0.9285E-06  0.7207E+00
      3.339  0.4949E-04  0.7207E+00
      3.410  0.1012E-02  0.7208E+00
      3.480  0.8040E-02  0.7214E+00
      3.551  0.2509E-01  0.7232E+00
      3.622  0.3102E-01  0.7254E+00
      3.693  0.1521E-01  0.7264E+00
      3.764  0.2983E-02  0.7267E+00
      3.835  0.9917E-03  0.7267E+00
      3.906  0.6088E-02  0.7272E+00
      3.977  0.1898E-01  0.7285E+00
      4.048  0.2504E-01  0.7303E+00
      4.118  0.2480E-01  0.7320E+00
      4.189  0.4209E-01  0.7350E+00
      4.260  0.5393E-01  0.7388E+00
      4.331  0.6765E-01  0.7436E+00
      4.402  0.1138E+00  0.7517E+00
      4.473  0.1175E+00  0.7600E+00
      4.544  0.6703E-01  0.7648E+00
      4.615  0.2524E-01  0.7666E+00
      4.685  0.2120E-01  0.7681E+00
      4.756  0.4442E-01  0.7712E+00
      4.827  0.5019E-01  0.7748E+00
      4.898  0.3807E-01  0.7775E+00
      4.969  0.3487E-01  0.7799E+00
      5.040  0.5863E-01  0.7841E+00
      5.111  0.9631E-01  0.7909E+00
      5.182  0.7720E-01  0.7964E+00
      5.253  0.4599E-01  0.7997E+00
      5.323  0.4973E-01  0.8032E+00
      5.394  0.3829E-01  0.8059E+00
      5.465  0.2489E-01  0.8077E+00
      5.536  0.4808E-01  0.8111E+00
      5.607  0.6911E-01  0.8160E+00
      5.678  0.4391E-01  0.8191E+00
      5.749  0.1398E-01  0.8201E+00
      5.820  0.2154E-01  0.8216E+00
      5.891  0.6982E-01  0.8266E+00
      5.961  0.9505E-01  0.8333E+00
      6.032  0.5138E-01  0.8369E+00
      6.103  0.1097E-01  0.8377E+00
      6.174  0.1050E-02  0.8378E+00
      6.245  0.2570E-02  0.8380E+00
      6.316  0.2122E-01  0.8395E+00
      6.387  0.8103E-01  0.8452E+00
      6.458  0.1429E+00  0.8553E+00
      6.528  0.1147E+00  0.8635E+00
      6.599  0.4626E-01  0.8668E+00
      6.670  0.3428E-01  0.8692E+00
      6.741  0.5010E-01  0.8727E+00
      6.812  0.4736E-01  0.8761E+00
      6.883  0.6702E-01  0.8808E+00
      6.954  0.1109E+00  0.8887E+00
      7.025  0.1290E+00  0.8978E+00
      7.096  0.1319E+00  0.9072E+00
      7.166  0.1236E+00  0.9160E+00
      7.237  0.1159E+00  0.9242E+00
      7.308  0.7932E-01  0.9298E+00
      7.379  0.2553E-01  0.9316E+00
      7.450  0.4753E-02  0.9319E+00
      7.521  0.1490E-01  0.9330E+00
      7.592  0.5988E-01  0.9372E+00
      7.663  0.9625E-01  0.9441E+00
      7.733  0.6140E-01  0.9484E+00
      7.804  0.1549E-01  0.9495E+00
      7.875  0.1531E-02  0.9496E+00
      7.946  0.5883E-04  0.9496E+00
      8.017  0.1853E-04  0.9496E+00
      8.088  0.5243E-03  0.9497E+00
      8.159  0.6012E-02  0.9501E+00
      8.230  0.2697E-01  0.9520E+00
      8.301  0.4781E-01  0.9554E+00
      8.371  0.3363E-01  0.9578E+00
      8.442  0.9364E-02  0.9584E+00
      8.513  0.1023E-02  0.9585E+00
      8.584  0.4329E-04  0.9585E+00
      8.655  0.7020E-06  0.9585E+00
      8.726  0.5148E-08  0.9585E+00
      8.797  0.1166E-06  0.9585E+00
      8.868  0.6210E-05  0.9585E+00
      8.938  0.1269E-03  0.9585E+00
      9.009  0.1007E-02  0.9586E+00
      9.080  0.3139E-02  0.9588E+00
      9.151  0.3876E-02  0.9591E+00
      9.222  0.1899E-02  0.9592E+00
      9.293  0.3672E-03  0.9593E+00
      9.364  0.2773E-04  0.9593E+00
      9.435  0.8079E-06  0.9593E+00
      9.506  0.8977E-08  0.9593E+00
      9.576  0.3768E-10  0.9593E+00
      9.647  0.5936E-13  0.9593E+00
      9.718  0.2553E-13  0.9593E+00
      9.789  0.1823E-10  0.9593E+00
      9.860  0.4885E-08  0.9593E+00
      9.931  0.4942E-06  0.9593E+00
     10.002  0.1905E-04  0.9593E+00
     10.073  0.2827E-03  0.9593E+00
     10.143  0.1637E-02  0.9594E+00
     10.214  0.3736E-02  0.9597E+00
     10.285  0.3382E-02  0.9599E+00
     10.356  0.1213E-02  0.9600E+00
     10.427  0.1712E-03  0.9600E+00
     10.498  0.9400E-05  0.9600E+00
     10.569  0.1983E-06  0.9600E+00
     10.640  0.1590E-08  0.9600E+00
     10.711  0.4803E-11  0.9600E+00
     10.781  0.5432E-14  0.9600E+00
     10.852  0.2320E-17  0.9600E+00
     10.923  0.0000E+00  0.9600E+00
     10.994  0.0000E+00  0.9600E+00
     11.065  0.0000E+00  0.9600E+00
     11.136  0.0000E+00  0.9600E+00
     11.207  0.0000E+00  0.9600E+00
     11.20671947    -10.05813336  301      2.02194429      1.00000000
    -10.058  0.0000E+00  0.0000E+00  0.0000E+00
     -9.987  0.0000E+00  0.0000E+00  0.0000E+00
     -9.916  0.0000E+00  0.0000E+00  0.0000E+00
     -9.845  0.0000E+00  0.0000E+00  0.0000E+00
     -9.775  0.0000E+00  0.0000E+00  0.0000E+00
     -9.704  0.0000E+00  0.0000E+00  0.0000E+00
     -9.633  0.3072E-17  0.2891E-41  0.1734E-40
     -9.562  0.7191E-14  0.6769E-38  0.4058E-37
     -9.491  0.6359E-11  0.2909E-16  0.2389E-15
     -9.420  0.2105E-08  0.4544E-13  0.3731E-12
     -9.349  0.2629E-06  0.2650E-10  0.2176E-09
     -9.278  0.1253E-04  0.5817E-08  0.4779E-07
     -9.208  0.2338E-03  0.4867E-06  0.4004E-05
     -9.137  0.1835E-02  0.1593E-04  0.1316E-03
     -9.066  0.7403E-02  0.2163E-03  0.1808E-02
     -8.995  0.2097E-01  0.1371E-02  0.1178E-01
     -8.924  0.4513E-01  0.4854E-02  0.4362E-01
     -8.853  0.6784E-01  0.1173E-01  0.1124E+00
     -8.782  0.7557E-01  0.2652E-01  0.2758E+00
     -8.711  0.7840E-01  0.5571E-01  0.6073E+00
     -8.640  0.6493E-01  0.7127E-01  0.7937E+00
     -8.570  0.2827E-01  0.4659E-01  0.5273E+00
     -8.499  0.5473E-02  0.1499E-01  0.1719E+00
     -8.428  0.4589E-03  0.2250E-02  0.2601E-01
     -8.357  0.1674E-04  0.1463E-03  0.1699E-02
     -8.286  0.2642E-06  0.3888E-05  0.4527E-04
     -8.215  0.1753E-08  0.4066E-07  0.4740E-06
     -8.144  0.4704E-11  0.1636E-09  0.1908E-08
     -8.073  0.4920E-14  0.2496E-12  0.2913E-11
     -8.003  0.2468E-17  0.1457E-15  0.1700E-14
     -7.932  0.0000E+00  0.0000E+00  0.0000E+00
     -7.861  0.0000E+00  0.0000E+00  0.0000E+00
     -7.790  0.0000E+00  0.0000E+00  0.0000E+00
     -7.719  0.0000E+00  0.0000E+00  0.0000E+00
     -7.648  0.0000E+00  0.0000E+00  0.0000E+00
     -7.577  0.0000E+00  0.0000E+00  0.0000E+00
     -7.506  0.0000E+00  0.0000E+00  0.0000E+00
     -7.435  0.0000E+00  0.0000E+00  0.0000E+00
     -7.365  0.0000E+00  0.0000E+00  0.0000E+00
     -7.294  0.0000E+00  0.0000E+00  0.0000E+00
     -7.223  0.0000E+00  0.0000E+00  0.0000E+00
     -7.152  0.0000E+00  0.0000E+00  0.0000E+00
     -7.081  0.0000E+00  0.0000E+00  0.0000E+00
     -7.010  0.0000E+00  0.0000E+00  0.0000E+00
     -6.939  0.0000E+00  0.0000E+00  0.0000E+00
     -6.868  0.1144E-18  0.1156E-16  0.3699E-13
     -6.798  0.3769E-15  0.1707E-13  0.5369E-10
     -6.727  0.4212E-12  0.1007E-10  0.3107E-07
     -6.656  0.1839E-09  0.2412E-08  0.7294E-05
     -6.585  0.3140E-07  0.2380E-06  0.7077E-03
     -6.514  0.2104E-05  0.9853E-05  0.2891E-01
     -6.443  0.5587E-04  0.1744E-03  0.5072E+00
     -6.372  0.6040E-03  0.1345E-02  0.3908E+01
     -6.301  0.2870E-02  0.4589E-02  0.1371E+02
     -6.230  0.7187E-02  0.7003E-02  0.2431E+02
     -6.160  0.1196E-01  0.4899E-02  0.2800E+02
     -6.089  0.1439E-01  0.1895E-02  0.2443E+02
     -6.018  0.1412E-01  0.1092E-02  0.1307E+02
     -5.947  0.1522E-01  0.1920E-02  0.4400E+01
     -5.876  0.2262E-01  0.4636E-02  0.3123E+01
     -5.805  0.3027E-01  0.8129E-02  0.4353E+01
     -5.734  0.2270E-01  0.9574E-02  0.4193E+01
     -5.663  0.9491E-02  0.9262E-02  0.3100E+01
     -5.593  0.2667E-02  0.5931E-02  0.1715E+01
     -5.522  0.4689E-03  0.1840E-02  0.5040E+00
     -5.451  0.3936E-04  0.2445E-03  0.6519E-01
     -5.380  0.1353E-05  0.1327E-04  0.3477E-02
     -5.309  0.1804E-07  0.2855E-06  0.7397E-04
     -5.238  0.9134E-10  0.2384E-08  0.6131E-06
     -5.167  0.1738E-12  0.7602E-11  0.1945E-08
     -5.096  0.1232E-15  0.9145E-14  0.2333E-11
     -5.025  0.9989E-36  0.4527E-17  0.1150E-14
     -4.955  0.0000E+00  0.0000E+00  0.0000E+00
     -4.884  0.0000E+00  0.0000E+00  0.0000E+00
     -4.813  0.0000E+00  0.0000E+00  0.0000E+00
     -4.742  0.0000E+00  0.0000E+00  0.0000E+00
     -4.671  0.0000E+00  0.0000E+00  0.0000E+00
     -4.600  0.0000E+00  0.0000E+00  0.0000E+00
     -4.529  0.0000E+00  0.0000E+00  0.0000E+00
     -4.458  0.0000E+00  0.0000E+00  0.0000E+00
     -4.388  0.0000E+00  0.0000E+00  0.0000E+00
     -4.317  0.0000E+00  0.0000E+00  0.0000E+00
     -4.246  0.0000E+00  0.0000E+00  0.0000E+00
     -4.175  0.0000E+00  0.0000E+00  0.0000E+00
     -4.104  0.0000E+00  0.0000E+00  0.0000E+00
     -4.033  0.0000E+00  0.0000E+00  0.0000E+00
     -3.962  0.0000E+00  0.0000E+00  0.0000E+00
     -3.891  0.0000E+00  0.0000E+00  0.0000E+00
     -3.820  0.0000E+00  0.0000E+00  0.0000E+00
     -3.750  0.0000E+00  0.0000E+00  0.0000E+00
     -3.679  0.0000E+00  0.0000E+00  0.0000E+00
     -3.608  0.0000E+00  0.0000E+00  0.0000E+00
     -3.537  0.0000E+00  0.0000E+00  0.0000E+00
     -3.466  0.0000E+00  0.0000E+00  0.0000E+00
     -3.395  0.0000E+00  0.0000E+00  0.0000E+00
     -3.324  0.0000E+00  0.0000E+00  0.0000E+00
     -3.253  0.0000E+00  0.0000E+00  0.0000E+00
     -3.182  0.0000E+00  0.0000E+00  0.0000E+00
     -3.112  0.0000E+00  0.0000E+00  0.0000E+00
     -3.041  0.0000E+00  0.0000E+00  0.0000E+00
     -2.970  0.0000E+00  0.0000E+00  0.0000E+00
     -2.899  0.0000E+00  0.0000E+00  0.0000E+00
     -2.828  0.1041E-16  0.1385E-35  0.9417E-18
     -2.757  0.3825E-13  0.5086E-32  0.3459E-14
     -2.686  0.3838E-10  0.2300E-15  0.3469E-11
     -2.615  0.1443E-07  0.4129E-12  0.1302E-08
     -2.545  0.2053E-05  0.2771E-09  0.1845E-06
     -2.474  0.1130E-03  0.6998E-07  0.9997E-05
     -2.403  0.2532E-02  0.6697E-05  0.2134E-03
     -2.332  0.2609E-01  0.2454E-03  0.1923E-02
     -2.261  0.1491E+00  0.3489E-02  0.8525E-02
     -2.190  0.5096E+00  0.1958E-01  0.2238E-01
     -2.119  0.9351E+00  0.4422E-01  0.3502E-01
     -2.048  0.8372E+00  0.4101E-01  0.2857E-01
     -1.977  0.3578E+00  0.1611E-01  0.1163E-01
     -1.907  0.1184E+00  0.4774E-02  0.8000E-02
     -1.836  0.2544E+00  0.1084E-01  0.3014E-01
     -1.765  0.4935E+00  0.2127E-01  0.5961E-01
     -1.694  0.4035E+00  0.1877E-01  0.4986E-01
     -1.623  0.2119E+00  0.1579E-01  0.3229E-01
     -1.552  0.2265E+00  0.2136E-01  0.4364E-01
     -1.481  0.2124E+00  0.1661E-01  0.4277E-01
     -1.410  0.9140E-01  0.5525E-02  0.1876E-01
     -1.340  0.1673E-01  0.7773E-03  0.3482E-02
     -1.269  0.1262E-02  0.4648E-04  0.2652E-03
     -1.198  0.3814E-04  0.1177E-05  0.8061E-05
     -1.127  0.5326E-05  0.5561E-06  0.1421E-05
     -1.056  0.2672E-03  0.2980E-04  0.7262E-04
     -0.985  0.5615E-02  0.6262E-03  0.1526E-02
     -0.914  0.4581E-01  0.5109E-02  0.1245E-01
     -0.843  0.1468E+00  0.1638E-01  0.3990E-01
     -0.772  0.1864E+00  0.2119E-01  0.5078E-01
     -0.702  0.9415E-01  0.1638E-01  0.2754E-01
     -0.631  0.2040E-01  0.3541E-01  0.1656E-01
     -0.560  0.5335E-02  0.7425E-01  0.2593E-01
     -0.489  0.3470E-02  0.6535E-01  0.2254E-01
     -0.418  0.1214E-02  0.2331E-01  0.8104E-02
     -0.347  0.3901E-03  0.9819E-02  0.4292E-02
     -0.276  0.1417E-02  0.3861E-01  0.1774E-01
     -0.205  0.5545E-02  0.1104E+00  0.4456E-01
     -0.135  0.1779E-01  0.2101E+00  0.7040E-01
     -0.064  0.4128E-01  0.2614E+00  0.8542E-01
      0.007  0.7762E-01  0.1722E+00  0.7194E-01
      0.078  0.1021E+00  0.8111E-01  0.5259E-01
      0.149  0.7099E-01  0.6422E-01  0.3913E-01
      0.220  0.5287E-01  0.8874E-01  0.5081E-01
      0.291  0.7313E-01  0.1373E+00  0.8329E-01
      0.362  0.5567E-01  0.1320E+00  0.7508E-01
      0.433  0.1747E-01  0.1141E+00  0.5325E-01
      0.503  0.5032E-02  0.1414E+00  0.6465E-01
      0.574  0.1127E-01  0.2369E+00  0.1202E+00
      0.645  0.1938E-01  0.2851E+00  0.1546E+00
      0.716  0.1549E-01  0.2151E+00  0.1239E+00
      0.787  0.5487E-02  0.1770E+00  0.1028E+00
      0.858  0.8190E-03  0.1273E+00  0.7286E-01
      0.929  0.4935E-04  0.4386E-01  0.2499E-01
      1.000  0.1164E-05  0.6659E-02  0.4023E-02
      1.070  0.1054E-07  0.8735E-02  0.8629E-02
      1.141  0.3611E-10  0.5096E-01  0.5134E-01
      1.212  0.4642E-13  0.1222E+00  0.1235E+00
      1.283  0.2306E-16  0.1184E+00  0.1207E+00
      1.354  0.2076E-25  0.5897E-01  0.6472E-01
      1.425  0.3586E-26  0.4782E-01  0.6176E-01
      1.496  0.5581E-27  0.4548E-01  0.6059E-01
      1.567  0.1839E-27  0.1972E-01  0.2654E-01
      1.638  0.2505E-27  0.4765E-02  0.8383E-02
      1.708  0.9518E-17  0.5317E-02  0.1434E-01
      1.779  0.2186E-13  0.7225E-02  0.1991E-01
      1.850  0.2127E-10  0.4061E-02  0.1120E-01
      1.921  0.7745E-08  0.9023E-03  0.2488E-02
      1.992  0.1062E-05  0.7844E-04  0.2163E-03
      2.063  0.5527E-04  0.2635E-05  0.7266E-05
      2.134  0.1104E-02  0.3383E-07  0.9326E-07
      2.205  0.8573E-02  0.1642E-09  0.4528E-09
      2.275  0.2615E-01  0.2994E-12  0.8255E-12
      2.346  0.3161E-01  0.2040E-15  0.5624E-15
      2.417  0.1516E-01  0.3413E-27  0.1648E-27
      2.488  0.2867E-02  0.6456E-28  0.3118E-28
      2.559  0.2118E-03  0.4768E-29  0.2303E-29
      2.630  0.6032E-05  0.1358E-30  0.6560E-31
      2.701  0.6552E-07  0.1475E-32  0.7125E-33
      2.772  0.2689E-09  0.6054E-35  0.2924E-35
      2.843  0.4137E-12  0.9316E-38  0.4499E-38
      2.913  0.2380E-15  0.5358E-41  0.2588E-41
      2.984  0.2793E-16  0.4384E-17  0.4445E-18
      3.055  0.1071E-12  0.1681E-13  0.1704E-14
      3.126  0.1067E-09  0.1675E-10  0.1698E-11
      3.197  0.3980E-07  0.6248E-08  0.6334E-09
      3.268  0.5588E-05  0.8772E-06  0.8892E-07
      3.339  0.2978E-03  0.4676E-04  0.4740E-05
      3.410  0.6091E-02  0.9563E-03  0.9694E-04
      3.480  0.4838E-01  0.7596E-02  0.7700E-03
      3.551  0.1510E+00  0.2371E-01  0.2403E-02
      3.622  0.1867E+00  0.2930E-01  0.2971E-02
      3.693  0.9156E-01  0.1437E-01  0.1457E-02
      3.764  0.1792E-01  0.2789E-02  0.2956E-03
      3.835  0.5426E-02  0.3568E-03  0.2977E-03
      3.906  0.3235E-01  0.1165E-02  0.2186E-02
      3.977  0.1009E+00  0.3676E-02  0.6796E-02
      4.048  0.1336E+00  0.5965E-02  0.8546E-02
      4.118  0.1358E+00  0.1364E-01  0.5538E-02
      4.189  0.2353E+00  0.3445E-01  0.5241E-02
      4.260  0.2990E+00  0.4554E-01  0.7794E-02
      4.331  0.3574E+00  0.5557E-01  0.1867E-01
      4.402  0.5750E+00  0.9429E-01  0.4126E-01
      4.473  0.5575E+00  0.1052E+00  0.4916E-01
      4.544  0.2838E+00  0.6856E-01  0.3369E-01
      4.615  0.9659E-01  0.2876E-01  0.1432E-01
      4.685  0.8355E-01  0.2606E-01  0.1074E-01
      4.756  0.1748E+00  0.5635E-01  0.2145E-01
      4.827  0.1772E+00  0.7083E-01  0.2396E-01
      4.898  0.8755E-01  0.6993E-01  0.1751E-01
      4.969  0.8721E-01  0.5924E-01  0.1427E-01
      5.040  0.3018E+00  0.3710E-01  0.1928E-01
      5.111  0.5708E+00  0.3090E-01  0.2967E-01
      5.182  0.4621E+00  0.2153E-01  0.2425E-01
      5.253  0.2671E+00  0.9379E-02  0.1739E-01
      5.323  0.2800E+00  0.7152E-02  0.2172E-01
      5.394  0.2064E+00  0.1092E-01  0.1670E-01
      5.465  0.6926E-01  0.4697E-01  0.1001E-01
      5.536  0.2401E-01  0.1416E+00  0.2298E-01
      5.607  0.1703E-01  0.1899E+00  0.4037E-01
      5.678  0.6718E-02  0.1111E+00  0.2935E-01
      5.749  0.1146E-02  0.3443E-01  0.9795E-02
      5.820  0.7976E-03  0.6198E-01  0.1239E-01
      5.891  0.2521E-02  0.2035E+00  0.3935E-01
      5.961  0.3432E-02  0.2770E+00  0.5355E-01
      6.032  0.1855E-02  0.1498E+00  0.2895E-01
      6.103  0.3970E-03  0.3199E-01  0.6182E-02
      6.174  0.8475E-04  0.3263E-02  0.5466E-03
      6.245  0.1233E-02  0.1016E-01  0.7685E-03
      6.316  0.1200E-01  0.7455E-01  0.7838E-02
      6.387  0.4945E-01  0.2539E+00  0.3545E-01
      6.458  0.8849E-01  0.4101E+00  0.7014E-01
      6.528  0.7057E-01  0.3102E+00  0.6017E-01
      6.599  0.3818E-01  0.1099E+00  0.2389E-01
      6.670  0.6657E-01  0.3852E-01  0.1290E-01
      6.741  0.1069E+00  0.4938E-01  0.1686E-01
      6.812  0.7150E-01  0.1076E+00  0.1425E-01
      6.883  0.1895E-01  0.3095E+00  0.1867E-01
      6.954  0.2084E-02  0.5268E+00  0.3918E-01
      7.025  0.7006E-03  0.5059E+00  0.6217E-01
      7.096  0.1600E-02  0.3939E+00  0.7705E-01
      7.166  0.2952E-02  0.3768E+00  0.6608E-01
      7.237  0.4123E-02  0.4385E+00  0.4596E-01
      7.308  0.2926E-02  0.3311E+00  0.2645E-01
      7.379  0.8660E-03  0.1105E+00  0.8042E-02
      7.450  0.1015E-03  0.2012E-01  0.1937E-02
      7.521  0.4624E-05  0.5631E-01  0.9629E-02
      7.592  0.8091E-07  0.2258E+00  0.3894E-01
      7.663  0.7859E-09  0.3629E+00  0.6259E-01
      7.733  0.1613E-09  0.2315E+00  0.3993E-01
      7.804  0.4035E-10  0.5840E-01  0.1007E-01
      7.875  0.3989E-11  0.5774E-02  0.9958E-03
      7.946  0.1532E-12  0.2218E-03  0.3823E-04
      8.017  0.4282E-13  0.6602E-04  0.9714E-05
      8.088  0.1204E-11  0.1863E-02  0.2717E-03
      8.159  0.1381E-10  0.2136E-01  0.3115E-02
      8.230  0.6195E-10  0.9584E-01  0.1398E-01
      8.301  0.1098E-09  0.1699E+00  0.2477E-01
      8.371  0.7725E-10  0.1195E+00  0.1743E-01
      8.442  0.2151E-10  0.3327E-01  0.4852E-02
      8.513  0.2349E-11  0.3634E-02  0.5299E-03
      8.584  0.1118E-12  0.1538E-03  0.2243E-04
      8.655  0.1232E-10  0.2495E-05  0.3638E-06
      8.726  0.4588E-08  0.1534E-07  0.2236E-08
      8.797  0.6434E-06  0.3546E-10  0.5171E-11
      8.868  0.3426E-04  0.3067E-13  0.4473E-14
      8.938  0.7000E-03  0.2090E-19  0.1040E-20
      9.009  0.5554E-02  0.1659E-18  0.8253E-20
      9.080  0.1732E-01  0.5171E-18  0.2573E-19
      9.151  0.2138E-01  0.6386E-18  0.3178E-19
      9.222  0.1048E-01  0.3129E-18  0.1557E-19
      9.293  0.2026E-02  0.6050E-19  0.3011E-20
      9.364  0.1530E-03  0.4569E-20  0.2273E-21
      9.435  0.4457E-05  0.1331E-21  0.6623E-23
      9.506  0.4952E-07  0.1479E-23  0.7359E-25
      9.576  0.2079E-09  0.6208E-26  0.3089E-27
      9.647  0.3274E-12  0.2290E-24  0.2852E-17
      9.718  0.3523E-13  0.4375E-21  0.5448E-14
      9.789  0.2505E-10  0.3129E-18  0.3896E-11
      9.860  0.6714E-08  0.8385E-16  0.1044E-08
      9.931  0.6793E-06  0.8483E-14  0.1056E-06
     10.002  0.2618E-04  0.3269E-12  0.4071E-05
     10.073  0.3886E-03  0.4853E-11  0.6043E-04
     10.143  0.2250E-02  0.2810E-10  0.3499E-03
     10.214  0.5134E-02  0.6412E-10  0.7984E-03
     10.285  0.4648E-02  0.5804E-10  0.7228E-03
     10.356  0.1667E-02  0.2082E-10  0.2593E-03
     10.427  0.2353E-03  0.2939E-11  0.3660E-04
     10.498  0.1292E-04  0.1613E-12  0.2009E-05
     10.569  0.2725E-06  0.3403E-14  0.4238E-07
     10.640  0.2185E-08  0.2729E-16  0.3398E-09
     10.711  0.6601E-11  0.8244E-19  0.1027E-11
     10.781  0.7466E-14  0.9324E-22  0.1161E-14
     10.852  0.3189E-17  0.3983E-25  0.4960E-18
     10.923  0.0000E+00  0.0000E+00  0.0000E+00
     10.994  0.0000E+00  0.0000E+00  0.0000E+00
     11.065  0.0000E+00  0.0000E+00  0.0000E+00
     11.136  0.0000E+00  0.0000E+00  0.0000E+00
     11.207  0.0000E+00  0.0000E+00  0.0000E+00
     11.20671947    -10.05813336  301      2.02194429      1.00000000
    -10.058  0.0000E+00  0.0000E+00  0.0000E+00
     -9.987  0.0000E+00  0.0000E+00  0.0000E+00
     -9.916  0.0000E+00  0.0000E+00  0.0000E+00
     -9.845  0.0000E+00  0.0000E+00  0.0000E+00
     -9.775  0.0000E+00  0.0000E+00  0.0000E+00
     -9.704  0.0000E+00  0.0000E+00  0.0000E+00
     -9.633  0.3072E-17  0.3194E-41  0.1537E-40
     -9.562  0.7191E-14  0.7476E-38  0.3597E-37
     -9.491  0.6359E-11  0.2909E-16  0.2389E-15
     -9.420  0.2105E-08  0.4544E-13  0.3731E-12
     -9.349  0.2629E-06  0.2650E-10  0.2176E-09
     -9.278  0.1253E-04  0.5817E-08  0.4779E-07
     -9.208  0.2338E-03  0.4867E-06  0.4004E-05
     -9.137  0.1835E-02  0.1593E-04  0.1316E-03
     -9.066  0.7403E-02  0.2163E-03  0.1808E-02
     -8.995  0.2097E-01  0.1371E-02  0.1178E-01
     -8.924  0.4513E-01  0.4854E-02  0.4362E-01
     -8.853  0.6784E-01  0.1173E-01  0.1124E+00
     -8.782  0.7557E-01  0.2652E-01  0.2758E+00
     -8.711  0.7840E-01  0.5571E-01  0.6073E+00
     -8.640  0.6493E-01  0.7127E-01  0.7937E+00
     -8.570  0.2827E-01  0.4659E-01  0.5273E+00
     -8.499  0.5473E-02  0.1499E-01  0.1719E+00
     -8.428  0.4589E-03  0.2250E-02  0.2601E-01
     -8.357  0.1674E-04  0.1463E-03  0.1699E-02
     -8.286  0.2642E-06  0.3888E-05  0.4527E-04
     -8.215  0.1753E-08  0.4066E-07  0.4740E-06
     -8.144  0.4704E-11  0.1636E-09  0.1908E-08
     -8.073  0.4920E-14  0.2496E-12  0.2913E-11
     -8.003  0.2468E-17  0.1457E-15  0.1700E-14
     -7.932  0.0000E+00  0.0000E+00  0.0000E+00
     -7.861  0.0000E+00  0.0000E+00  0.0000E+00
     -7.790  0.0000E+00  0.0000E+00  0.0000E+00
     -7.719  0.0000E+00  0.0000E+00  0.0000E+00
     -7.648  0.0000E+00  0.0000E+00  0.0000E+00
     -7.577  0.0000E+00  0.0000E+00  0.0000E+00
     -7.506  0.0000E+00  0.0000E+00  0.0000E+00
     -7.435  0.0000E+00  0.0000E+00  0.0000E+00
     -7.365  0.0000E+00  0.0000E+00  0.0000E+00
     -7.294  0.0000E+00  0.0000E+00  0.0000E+00
     -7.223  0.0000E+00  0.0000E+00  0.0000E+00
     -7.152  0.0000E+00  0.0000E+00  0.0000E+00
     -7.081  0.0000E+00  0.0000E+00  0.0000E+00
     -7.010  0.0000E+00  0.0000E+00  0.0000E+00
     -6.939  0.0000E+00  0.0000E+00  0.0000E+00
     -6.868  0.1144E-18  0.1156E-16  0.3699E-13
     -6.798  0.3769E-15  0.1707E-13  0.5369E-10
     -6.727  0.4212E-12  0.1007E-10  0.3107E-07
     -6.656  0.1839E-09  0.2412E-08  0.7294E-05
     -6.585  0.3140E-07  0.2380E-06  0.7077E-03
     -6.514  0.2104E-05  0.9853E-05  0.2891E-01
     -6.443  0.5587E-04  0.1744E-03  0.5072E+00
     -6.372  0.6040E-03  0.1345E-02  0.3908E+01
     -6.301  0.2870E-02  0.4589E-02  0.1371E+02
     -6.230  0.7187E-02  0.7003E-02  0.2431E+02
     -6.160  0.1196E-01  0.4899E-02  0.2800E+02
     -6.089  0.1439E-01  0.1895E-02  0.2443E+02
     -6.018  0.1412E-01  0.1092E-02  0.1307E+02
     -5.947  0.1522E-01  0.1920E-02  0.4400E+01
     -5.876  0.2262E-01  0.4636E-02  0.3123E+01
     -5.805  0.3027E-01  0.8129E-02  0.4353E+01
     -5.734  0.2270E-01  0.9574E-02  0.4193E+01
     -5.663  0.9491E-02  0.9262E-02  0.3100E+01
     -5.593  0.2667E-02  0.5931E-02  0.1715E+01
     -5.522  0.4689E-03  0.1840E-02  0.5040E+00
     -5.451  0.3936E-04  0.2445E-03  0.6519E-01
     -5.380  0.1353E-05  0.1327E-04  0.3477E-02
     -5.309  0.1804E-07  0.2855E-06  0.7397E-04
     -5.238  0.9134E-10  0.2384E-08  0.6131E-06
     -5.167  0.1738E-12  0.7602E-11  0.1945E-08
     -5.096  0.1232E-15  0.9145E-14  0.2333E-11
     -5.025  0.1038E-35  0.4527E-17  0.1150E-14
     -4.955  0.0000E+00  0.0000E+00  0.0000E+00
     -4.884  0.0000E+00  0.0000E+00  0.0000E+00
     -4.813  0.0000E+00  0.0000E+00  0.0000E+00
     -4.742  0.0000E+00  0.0000E+00  0.0000E+00
     -4.671  0.0000E+00  0.0000E+00  0.0000E+00
     -4.600  0.0000E+00  0.0000E+00  0.0000E+00
     -4.529  0.0000E+00  0.0000E+00  0.0000E+00
     -4.458  0.0000E+00  0.0000E+00  0.0000E+00
     -4.388  0.0000E+00  0.0000E+00  0.0000E+00
     -4.317  0.0000E+00  0.0000E+00  0.0000E+00
     -4.246  0.0000E+00  0.0000E+00  0.0000E+00
     -4.175  0.0000E+00  0.0000E+00  0.0000E+00
     -4.104  0.0000E+00  0.0000E+00  0.0000E+00
     -4.033  0.0000E+00  0.0000E+00  0.0000E+00
     -3.962  0.0000E+00  0.0000E+00  0.0000E+00
     -3.891  0.0000E+00  0.0000E+00  0.0000E+00
     -3.820  0.0000E+00  0.0000E+00  0.0000E+00
     -3.750  0.0000E+00  0.0000E+00  0.0000E+00