       N       E                     dE             d eps       ncg     rms          rms(c)
DAV:   1     0.461273132991E+03    0.46127E+03   -0.31622E+04   384   0.127E+03
DAV:   2     0.647972484912E+01   -0.45479E+03   -0.44001E+03   424   0.312E+02
DAV:   3    -0.196047475832E+02   -0.26084E+02   -0.25941E+02   456   0.744E+01
DAV:   4    -0.200025335502E+02   -0.39779E+00   -0.39762E+00   456   0.793E+00
DAV:   5    -0.200077021815E+02   -0.51686E-02   -0.51685E-02   456   0.986E-01    0.111E+01
DAV:   6    -0.191293712604E+02    0.87833E+00   -0.18802E+00   400   0.976E+00    0.902E+00
DAV:   7    -0.190774273437E+02    0.51944E-01   -0.74021E-01   416   0.316E+00    0.324E+00
DAV:   8    -0.190779450107E+02   -0.51767E-03   -0.64446E-02   416   0.189E+00    0.120E+00
DAV:   9    -0.190792604307E+02   -0.13154E-02   -0.76636E-03   424   0.610E-01    0.295E-01
DAV:  10    -0.190791406294E+02    0.11980E-03   -0.11848E-03   416   0.242E-01    0.134E-01
DAV:  11    -0.190792755313E+02   -0.13490E-03   -0.64064E-04   448   0.141E-01    0.440E-02
DAV:  12    -0.190792814619E+02   -0.59305E-05   -0.77405E-05   432   0.650E-02    0.279E-02
DAV:  13    -0.190792951051E+02   -0.13643E-04   -0.40736E-05   400   0.190E-02    0.496E-02
DAV:  14    -0.190792928607E+02    0.22444E-05   -0.12337E-05   424   0.183E-02    0.980E-03
DAV:  15    -0.190792934512E+02   -0.59048E-06   -0.18443E-06   360   0.438E-03
   1 F= -.19079293E+02 E0= -.19079293E+02  d E =-.190793E+02
       N       E                     dE             d eps       ncg     rms          rms(c)
DAV:   1    -0.223348826260E+02   -0.32556E+01   -0.69927E+01   416   0.602E+01    0.162E+01
DAV:   2    -0.196165758907E+02    0.27183E+01   -0.70359E+00   400   0.243E+01    0.526E+00
DAV:   3    -0.193069345614E+02    0.30964E+00   -0.68877E-01   400   0.506E+00    0.481E+00
DAV:   4    -0.192192919481E+02    0.87643E-01   -0.13519E-01   384   0.127E+00    0.926E-01
DAV:   5    -0.192148253737E+02    0.44666E-02   -0.11178E-02   384   0.659E-01    0.533E-01
DAV:   6    -0.192144400449E+02    0.38533E-03   -0.15430E-03   424   0.180E-01    0.342E-01
DAV:   7    -0.192143933501E+02    0.46695E-04   -0.70066E-04   400   0.150E-01    0.852E-02
DAV:   8    -0.192144339977E+02   -0.40648E-04   -0.23860E-04   408   0.710E-02    0.413E-02
DAV:   9    -0.192144420108E+02   -0.80131E-05   -0.74888E-06   392   0.113E-02    0.284E-02
DAV:  10    -0.192144460131E+02   -0.40023E-05   -0.60671E-06   320   0.744E-03    0.326E-03
DAV:  11    -0.192144461171E+02   -0.10402E-06   -0.96421E-07   288   0.713E-03
   2 F= -.19214446E+02 E0= -.19214444E+02  d E =-.135153E+00
