PROCAR new format
# of k-points:    4         # of bands:  48         # of ions:   8

 k-point    1 :    0.00000000 0.00000000 0.00000000     weight = 0.03703704

band   1 # energy   -9.05813336 # occ.  2.00000000
 
ion      s      p      d    tot
  1  0.013  0.000  0.000  0.013
  2  0.013  0.000  0.000  0.013
  3  0.013  0.000  0.000  0.013
  4  0.013  0.000  0.000  0.013
  5  0.145  0.000  0.000  0.145
  6  0.145  0.000  0.000  0.145
  7  0.145  0.000  0.000  0.145
  8  0.145  0.000  0.000  0.145
tot  0.633  0.000  0.000  0.633
 
band   2 # energy   -8.62403660 # occ.  2.00000000
 
ion      s      p      d    tot
  1  0.000  0.003  0.032  0.035
  2  0.000  0.003  0.032  0.035
  3  0.000  0.003  0.032  0.035
  4  0.000  0.003  0.032  0.035
  5  0.005  0.000  0.000  0.005
  6  0.244  0.000  0.000  0.244
  7  0.299  0.000  0.000  0.299
  8  0.034  0.000  0.000  0.034
tot  0.581  0.011  0.130  0.722
 
band   3 # energy   -8.62403660 # occ.  2.00000000
 
ion      s      p      d    tot
  1  0.000  0.003  0.032  0.035
  2  0.000  0.003  0.032  0.035
  3  0.000  0.003  0.032  0.035
  4  0.000  0.003  0.032  0.035
  5  0.205  0.000  0.000  0.205
  6  0.065  0.000  0.000  0.065
  7  0.118  0.000  0.000  0.118
  8  0.193  0.000  0.000  0.193
tot  0.581  0.011  0.130  0.722
 
band   4 # energy   -8.62403660 # occ.  2.00000000
 
ion      s      p      d    tot
  1  0.000  0.003  0.032  0.035
  2  0.000  0.003  0.032  0.035
  3  0.000  0.003  0.032  0.035
  4  0.000  0.003  0.032  0.035
  5  0.227  0.000  0.000  0.227
  6  0.127  0.000  0.000  0.127
  7  0.019  0.000  0.000  0.019
  8  0.209  0.000  0.000  0.209
tot  0.581  0.011  0.130  0.722
 
band   5 # energy   -6.33977668 # occ.  2.00000000
 
ion      s      p      d    tot
  1  0.000  0.000  0.228  0.228
  2  0.000  0.000  0.228  0.228
  3  0.000  0.000  0.228  0.228
  4  0.000  0.000  0.228  0.228
  5  0.000  0.004  0.000  0.004
  6  0.000  0.004  0.000  0.004
  7  0.000  0.004  0.000  0.004
  8  0.000  0.004  0.000  0.004
tot  0.000  0.016  0.912  0.928
 
band   6 # energy   -6.33977668 # occ.  2.00000000
 
ion      s      p      d    tot
  1  0.000  0.000  0.228  0.228
  2  0.000  0.000  0.228  0.228
  3  0.000  0.000  0.228  0.228
  4  0.000  0.000  0.228  0.228
  5  0.000  0.004  0.000  0.004
  6  0.000  0.004  0.000  0.004
  7  0.000  0.004  0.000  0.004
  8  0.000  0.004  0.000  0.004
tot  0.000  0.016  0.912  0.928
 
band   7 # energy   -6.33977668 # occ.  2.00000000
 
ion      s      p      d    tot
  1  0.000  0.000  0.228  0.228
  2  0.000  0.000  0.228  0.228
  3  0.000  0.000  0.228  0.228
  4  0.000  0.000  0.228  0.228
  5  0.000  0.004  0.000  0.004
  6  0.000  0.004  0.000  0.004
  7  0.000  0.004  0.000  0.004
  8  0.000  0.004  0.000  0.004
tot  0.000  0.016  0.912  0.928
 
band   8 # energy   -6.20906483 # occ.  2.00000000
 
ion      s      p      d    tot
  1  0.000  0.000  0.387  0.387
  2  0.000  0.000  0.075  0.075
  3  0.000  0.000  0.049  0.049
  4  0.000  0.000  0.427  0.427
  5  0.000  0.002  0.000  0.003
  6  0.000  0.001  0.000  0.002
  7  0.000  0.002  0.000  0.002
  8  0.000  0.001  0.000  0.002
tot  0.000  0.007  0.939  0.946
 
band   9 # energy   -6.20906483 # occ.  2.00000000
 
ion      s      p      d    tot
  1  0.000  0.000  0.100  0.100
  2  0.000  0.000  0.305  0.305
  3  0.000  0.000  0.214  0.214
  4  0.000  0.000  0.318  0.318
  5  0.000  0.001  0.000  0.002
  6  0.000  0.003  0.000  0.003
  7  0.000  0.001  0.000  0.002
  8  0.000  0.001  0.000  0.002
tot  0.000  0.007  0.939  0.946
 
band  10 # energy   -6.20906483 # occ.  2.00000000
 
ion      s      p      d    tot
  1  0.000  0.000  0.272  0.272
  2  0.000  0.000  0.294  0.295
  3  0.000  0.000  0.174  0.174
  4  0.000  0.000  0.198  0.198
  5  0.000  0.002  0.000  0.002
  6  0.000  0.002  0.000  0.002
  7  0.000  0.002  0.000  0.002
  8  0.000  0.002  0.000  0.002
tot  0.000  0.007  0.939  0.946
 
band  11 # energy   -6.20906483 # occ.  2.00000000
 
ion      s      p      d    tot
  1  0.000  0.000  0.120  0.120
  2  0.000  0.000  0.346  0.346
  3  0.000  0.000  0.412  0.412
  4  0.000  0.000  0.060  0.060
  5  0.000  0.002  0.000  0.002
  6  0.000  0.001  0.000  0.001
  7  0.000  0.002  0.000  0.002
  8  0.000  0.002  0.000  0.003
tot  0.000  0.007  0.939  0.946
 
band  12 # energy   -6.20906483 # occ.  2.00000000
 
ion      s      p      d    tot
  1  0.000  0.000  0.289  0.289
  2  0.000  0.000  0.205  0.206
  3  0.000  0.000  0.281  0.281
  4  0.000  0.000  0.162  0.162
  5  0.000  0.002  0.000  0.002
  6  0.000  0.001  0.000  0.001
  7  0.000  0.003  0.000  0.003
  8  0.000  0.002  0.000  0.002
tot  0.000  0.007  0.939  0.946
 
band  13 # energy   -6.20906483 # occ.  2.00000000
 
ion      s      p      d    tot
  1  0.000  0.000  0.238  0.238
  2  0.000  0.000  0.181  0.181
  3  0.000  0.000  0.277  0.277
  4  0.000  0.000  0.242  0.242
  5  0.000  0.002  0.000  0.002
  6  0.000  0.003  0.000  0.003
  7  0.000  0.001  0.000  0.001
  8  0.000  0.002  0.000  0.002
tot  0.000  0.007  0.939  0.946
 
band  14 # energy   -6.20588713 # occ.  2.00000000
 
ion      s      p      d    tot
  1  0.000  0.000  0.284  0.284
  2  0.000  0.000  0.163  0.164
  3  0.000  0.000  0.181  0.181
  4  0.000  0.000  0.296  0.296
  5  0.000  0.001  0.000  0.002
  6  0.000  0.001  0.000  0.002
  7  0.000  0.001  0.000  0.002
  8  0.000  0.001  0.000  0.002
tot  0.001  0.006  0.923  0.930
 
band  15 # energy   -6.20588713 # occ.  2.00000000
 
ion      s      p      d    tot
  1  0.000  0.000  0.153  0.153
  2  0.000  0.000  0.306  0.306
  3  0.000  0.000  0.298  0.298
  4  0.000  0.000  0.166  0.167
  5  0.000  0.001  0.000  0.002
  6  0.000  0.001  0.000  0.002
  7  0.000  0.001  0.000  0.002
  8  0.000  0.001  0.000  0.002
tot  0.001  0.006  0.923  0.930
 
band  16 # energy   -6.20588713 # occ.  2.00000000
 
ion      s      p      d    tot
  1  0.000  0.000  0.256  0.256
  2  0.000  0.000  0.223  0.223
  3  0.000  0.000  0.214  0.214
  4  0.000  0.000  0.231  0.231
  5  0.000  0.001  0.000  0.002
  6  0.000  0.001  0.000  0.002
  7  0.000  0.001  0.000  0.002
  8  0.000  0.001  0.000  0.002
tot  0.001  0.006  0.923  0.930
 
band  17 # energy   -6.12885475 # occ.  2.00000000
 
ion      s      p      d    tot
  1  0.000  0.000  0.237  0.237
  2  0.000  0.000  0.237  0.237
  3  0.000  0.000  0.237  0.237
  4  0.000  0.000  0.237  0.237
  5  0.000  0.000  0.000  0.000
  6  0.000  0.000  0.000  0.000
  7  0.000  0.000  0.000  0.000
  8  0.000  0.000  0.000  0.000
tot  0.000  0.000  0.948  0.948
 
band  18 # energy   -6.12885475 # occ.  2.00000000
 
ion      s      p      d    tot
  1  0.000  0.000  0.237  0.237
  2  0.000  0.000  0.237  0.237
  3  0.000  0.000  0.237  0.237
  4  0.000  0.000  0.237  0.237
  5  0.000  0.000  0.000  0.000
  6  0.000  0.000  0.000  0.000
  7  0.000  0.000  0.000  0.000
  8  0.000  0.000  0.000  0.000
tot  0.000  0.000  0.948  0.948
 
band  19 # energy   -6.10379094 # occ.  2.00000000
 
ion      s      p      d    tot
  1  0.000  0.000  0.176  0.176
  2  0.000  0.000  0.329  0.329
  3  0.000  0.000  0.325  0.325
  4  0.000  0.000  0.121  0.121
  5  0.000  0.000  0.000  0.000
  6  0.000  0.000  0.000  0.000
  7  0.000  0.000  0.000  0.000
  8  0.000  0.000  0.000  0.000
tot  0.000  0.000  0.951  0.951
 
band  20 # energy   -6.10379094 # occ.  2.00000000
 
ion      s      p      d    tot
  1  0.000  0.000  0.282  0.282
  2  0.000  0.000  0.222  0.222
  3  0.000  0.000  0.101  0.101
  4  0.000  0.000  0.346  0.346
  5  0.000  0.000  0.000  0.000
  6  0.000  0.000  0.000  0.000
  7  0.000  0.000  0.000  0.000
  8  0.000  0.000  0.000  0.000
tot  0.000  0.000  0.951  0.951
 
band  21 # energy   -6.10379094 # occ.  2.00000000
 
ion      s      p      d    tot
  1  0.000  0.000  0.255  0.255
  2  0.000  0.000  0.162  0.162
  3  0.000  0.000  0.287  0.287
  4  0.000  0.000  0.247  0.247
  5  0.000  0.000  0.000  0.000
  6  0.000  0.000  0.000  0.000
  7  0.000  0.000  0.000  0.000
  8  0.000  0.000  0.000  0.000
tot  0.000  0.000  0.951  0.951
 
band  22 # energy   -5.71270542 # occ.  2.00000000
 
ion      s      p      d    tot
  1  0.000  0.001  0.205  0.206
  2  0.000  0.001  0.205  0.206
  3  0.000  0.001  0.205  0.206
  4  0.000  0.001  0.205  0.206
  5  0.047  0.000  0.000  0.047
  6  0.043  0.000  0.000  0.043
  7  0.010  0.000  0.000  0.010
  8  0.000  0.000  0.000  0.001
tot  0.100  0.004  0.819  0.923
 
band  23 # energy   -5.71270542 # occ.  2.00000000
 
ion      s      p      d    tot
  1  0.000  0.001  0.205  0.206
  2  0.000  0.001  0.205  0.206
  3  0.000  0.001  0.205  0.206
  4  0.000  0.001  0.205  0.206
  5  0.007  0.000  0.000  0.007
  6  0.002  0.000  0.000  0.002
  7  0.027  0.000  0.000  0.027
  8  0.065  0.000  0.000  0.065
tot  0.100  0.004  0.819  0.923
 
band  24 # energy   -5.71270542 # occ.  2.00000000
 
ion      s      p      d    tot
  1  0.000  0.001  0.205  0.206
  2  0.000  0.001  0.205  0.206
  3  0.000  0.001  0.205  0.206
  4  0.000  0.001  0.205  0.206
  5  0.021  0.000  0.000  0.021
  6  0.031  0.000  0.000  0.031
  7  0.038  0.000  0.000  0.038
  8  0.010  0.000  0.000  0.010
tot  0.100  0.004  0.819  0.923
 
band  25 # energy   -2.24434273 # occ.  2.00000000
 
ion      s      p      d    tot
  1  0.048  0.000  0.006  0.054
  2  0.067  0.000  0.005  0.072
  3  0.071  0.000  0.005  0.076
  4  0.054  0.000  0.006  0.060
  5  0.000  0.053  0.001  0.054
  6  0.000  0.053  0.001  0.054
  7  0.000  0.053  0.001  0.054
  8  0.000  0.053  0.001  0.054
tot  0.239  0.211  0.025  0.475
 
band  26 # energy   -2.24434273 # occ.  2.00000000
 
ion      s      p      d    tot
  1  0.000  0.000  0.008  0.008
  2  0.083  0.000  0.004  0.088
  3  0.108  0.000  0.003  0.111
  4  0.048  0.000  0.006  0.054
  5  0.000  0.053  0.001  0.054
  6  0.000  0.053  0.001  0.054
  7  0.000  0.053  0.001  0.054
  8  0.000  0.053  0.001  0.054
tot  0.239  0.211  0.025  0.475
 
band  27 # energy   -2.24434273 # occ.  2.00000000
 
ion      s      p      d    tot
  1  0.131  0.000  0.002  0.134
  2  0.030  0.000  0.007  0.036
  3  0.001  0.000  0.008  0.009
  4  0.078  0.000  0.005  0.082
  5  0.000  0.053  0.001  0.054
  6  0.000  0.053  0.001  0.054
  7  0.000  0.053  0.001  0.054
  8  0.000  0.053  0.001  0.054
tot  0.239  0.211  0.025  0.475
 
band  28 # energy    0.09954499 # occ.  2.00000000
 
ion      s      p      d    tot
  1  0.000  0.014  0.003  0.016
  2  0.000  0.022  0.005  0.027
  3  0.000  0.021  0.004  0.025
  4  0.000  0.015  0.003  0.019
  5  0.000  0.090  0.000  0.090
  6  0.000  0.094  0.000  0.094
  7  0.000  0.150  0.000  0.150
  8  0.000  0.039  0.000  0.039
tot  0.000  0.445  0.015  0.461
 
band  29 # energy    0.09954499 # occ.  2.00000000
 
ion      s      p      d    tot
  1  0.000  0.016  0.003  0.020
  2  0.000  0.016  0.003  0.019
  3  0.000  0.013  0.003  0.015
  4  0.000  0.027  0.006  0.033
  5  0.000  0.030  0.000  0.030
  6  0.000  0.040  0.000  0.040
  7  0.000  0.173  0.000  0.173
  8  0.000  0.129  0.000  0.129
tot  0.000  0.445  0.015  0.461
 
band  30 # energy    0.09954499 # occ.  2.00000000
 
ion      s      p      d    tot
  1  0.000  0.020  0.004  0.024
  2  0.000  0.014  0.003  0.017
  3  0.000  0.020  0.004  0.024
  4  0.000  0.018  0.004  0.022
  5  0.000  0.122  0.000  0.122
  6  0.000  0.141  0.000  0.141
  7  0.000  0.011  0.000  0.011
  8  0.000  0.100  0.000  0.100
tot  0.000  0.445  0.015  0.461
 
band  31 # energy    0.09954499 # occ.  2.00000000
 
ion      s      p      d    tot
  1  0.000  0.016  0.003  0.019
  2  0.000  0.022  0.005  0.027
  3  0.000  0.020  0.004  0.024
  4  0.000  0.014  0.003  0.017
  5  0.000  0.075  0.000  0.075
  6  0.000  0.098  0.000  0.098
  7  0.000  0.078  0.000  0.078
  8  0.000  0.123  0.000  0.123
tot  0.000  0.445  0.015  0.461
 
band  32 # energy    0.09954499 # occ.  2.00000000
 
ion      s      p      d    tot
  1  0.000  0.024  0.005  0.029
  2  0.000  0.004  0.001  0.005
  3  0.000  0.025  0.005  0.030
  4  0.000  0.019  0.004  0.024
  5  0.000  0.065  0.000  0.065
  6  0.000  0.139  0.000  0.139
  7  0.000  0.098  0.000  0.098
  8  0.000  0.070  0.000  0.070
tot  0.000  0.445  0.015  0.461
 
band  33 # energy    0.09954499 # occ.  2.00000000
 
ion      s      p      d    tot
  1  0.000  0.019  0.004  0.023
  2  0.000  0.030  0.006  0.036
  3  0.000  0.009  0.002  0.011
  4  0.000  0.014  0.003  0.017
  5  0.000  0.177  0.000  0.177
  6  0.000  0.048  0.000  0.048
  7  0.000  0.049  0.000  0.049
  8  0.000  0.100  0.000  0.100
tot  0.000  0.445  0.015  0.461
 
band  34 # energy    1.73516762 # occ.  1.99995000
 
ion      s      p      d    tot
  1  0.000  0.006  0.017  0.023
  2  0.000  0.006  0.017  0.023
  3  0.000  0.006  0.017  0.023
  4  0.000  0.006  0.017  0.023
  5  0.000  0.122  0.000  0.122
  6  0.000  0.122  0.000  0.122
  7  0.000  0.122  0.000  0.122
  8  0.000  0.122  0.000  0.122
tot  0.000  0.512  0.067  0.579
 
band  35 # energy    1.73516762 # occ.  1.99995000
 
ion      s      p      d    tot
  1  0.000  0.006  0.017  0.023
  2  0.000  0.006  0.017  0.023
  3  0.000  0.006  0.017  0.023
  4  0.000  0.006  0.017  0.023
  5  0.000  0.122  0.000  0.122
  6  0.000  0.122  0.000  0.122
  7  0.000  0.122  0.000  0.122
  8  0.000  0.122  0.000  0.122
tot  0.000  0.512  0.067  0.579
 
band  36 # energy    1.73516762 # occ.  1.99995000
 
ion      s      p      d    tot
  1  0.000  0.006  0.017  0.023
  2  0.000  0.006  0.017  0.023
  3  0.000  0.006  0.017  0.023
  4  0.000  0.006  0.017  0.023
  5  0.000  0.122  0.000  0.122
  6  0.000  0.122  0.000  0.122
  7  0.000  0.122  0.000  0.122
  8  0.000  0.122  0.000  0.122
tot  0.000  0.512  0.067  0.579
 
band  37 # energy    2.29001398 # occ.  0.00014999
 
ion      s      p      d    tot
  1  0.082  0.000  0.000  0.082
  2  0.082  0.000  0.000  0.082
  3  0.082  0.000  0.000  0.082
  4  0.082  0.000  0.000  0.082
  5  0.055  0.000  0.000  0.055
  6  0.055  0.000  0.000  0.055
  7  0.055  0.000  0.000  0.055
  8  0.055  0.000  0.000  0.055
tot  0.547  0.000  0.000  0.547
 
band  38 # energy    4.39921956 # occ.  0.00000000
 
ion      s      p      d    tot
  1  0.051  0.000  0.008  0.059
  2  0.052  0.000  0.008  0.060
  3  0.074  0.000  0.006  0.081
  4  0.038  0.000  0.009  0.047
  5  0.000  0.030  0.011  0.042
  6  0.000  0.030  0.011  0.042
  7  0.000  0.030  0.011  0.042
  8  0.000  0.030  0.011  0.042
tot  0.215  0.121  0.076  0.413
 
band  39 # energy    4.39921956 # occ.  0.00000000
 
ion      s      p      d    tot
  1  0.018  0.000  0.011  0.028
  2  0.108  0.000  0.004  0.112
  3  0.080  0.000  0.006  0.086
  4  0.009  0.000  0.011  0.020
  5  0.000  0.030  0.011  0.042
  6  0.000  0.030  0.011  0.042
  7  0.000  0.030  0.011  0.042
  8  0.000  0.030  0.011  0.042
tot  0.215  0.121  0.076  0.413
 
band  40 # energy    4.39921956 # occ.  0.00000000
 
ion      s      p      d    tot
  1  0.093  0.000  0.005  0.098
  2  0.001  0.000  0.012  0.013
  3  0.007  0.000  0.011  0.018
  4  0.114  0.000  0.003  0.118
  5  0.000  0.030  0.011  0.042
  6  0.000  0.030  0.011  0.042
  7  0.000  0.030  0.011  0.042
  8  0.000  0.030  0.011  0.042
tot  0.215  0.121  0.076  0.413
 
band  41 # energy    4.48852930 # occ.  0.00000000
 
ion      s      p      d    tot
  1  0.000  0.025  0.007  0.032
  2  0.000  0.025  0.007  0.032
  3  0.000  0.025  0.007  0.032
  4  0.000  0.025  0.007  0.032
  5  0.012  0.000  0.009  0.021
  6  0.022  0.000  0.005  0.026
  7  0.012  0.000  0.009  0.020
  8  0.001  0.000  0.013  0.014
tot  0.046  0.100  0.063  0.209
 
band  42 # energy    4.48852930 # occ.  0.00000000
 
ion      s      p      d    tot
  1  0.000  0.025  0.007  0.032
  2  0.000  0.025  0.007  0.032
  3  0.000  0.025  0.007  0.032
  4  0.000  0.025  0.007  0.032
  5  0.021  0.000  0.005  0.026
  6  0.012  0.000  0.009  0.020
  7  0.009  0.000  0.010  0.019
  8  0.004  0.000  0.012  0.016
tot  0.046  0.100  0.063  0.209
 
band  43 # energy    4.48852930 # occ.  0.00000000
 
ion      s      p      d    tot
  1  0.000  0.025  0.007  0.032
  2  0.000  0.025  0.007  0.032
  3  0.000  0.025  0.007  0.032
  4  0.000  0.025  0.007  0.032
  5  0.001  0.000  0.013  0.014
  6  0.001  0.000  0.013  0.014
  7  0.014  0.000  0.008  0.022
  8  0.030  0.000  0.002  0.031
tot  0.046  0.100  0.063  0.209
 
band  44 # energy    6.37392821 # occ.  0.00000000
 
ion      s      p      d    tot
  1  0.000  0.059  0.000  0.059
  2  0.000  0.059  0.000  0.059
  3  0.000  0.059  0.000  0.059
  4  0.000  0.059  0.000  0.059
  5  0.000  0.002  0.021  0.023
  6  0.000  0.002  0.021  0.023
  7  0.000  0.002  0.021  0.023
  8  0.000  0.002  0.021  0.023
tot  0.000  0.243  0.084  0.327
 
band  45 # energy    6.37392821 # occ.  0.00000000
 
ion      s      p      d    tot
  1  0.000  0.059  0.000  0.059
  2  0.000  0.059  0.000  0.059
  3  0.000  0.059  0.000  0.059
  4  0.000  0.059  0.000  0.059
  5  0.000  0.002  0.021  0.023
  6  0.000  0.002  0.021  0.023
  7  0.000  0.002  0.021  0.023
  8  0.000  0.002  0.021  0.023
tot  0.000  0.243  0.084  0.327
 
band  46 # energy    6.37392821 # occ.  0.00000000
 
ion      s      p      d    tot
  1  0.000  0.059  0.000  0.059
  2  0.000  0.059  0.000  0.059
  3  0.000  0.059  0.000  0.059
  4  0.000  0.059  0.000  0.059
  5  0.000  0.002  0.021  0.023
  6  0.000  0.002  0.021  0.023
  7  0.000  0.002  0.021  0.023
  8  0.000  0.002  0.021  0.023
tot  0.000  0.243  0.084  0.327
 
band  47 # energy    9.09642450 # occ.  0.00000000
 
ion      s      p      d    tot
  1  0.055  0.000  0.000  0.055
  2  0.055  0.000  0.000  0.055
  3  0.055  0.000  0.000  0.055
  4  0.055  0.000  0.000  0.055
  5  0.002  0.000  0.000  0.002
  6  0.002  0.000  0.000  0.002
  7  0.002  0.000  0.000  0.002
  8  0.002  0.000  0.000  0.002
tot  0.228  0.000  0.000  0.228
 
band  48 # energy   10.20671947 # occ.  0.00000000
 
ion      s      p      d    tot
  1  0.014  0.000  0.002  0.016
  2  0.019  0.000  0.002  0.021
  3  0.020  0.000  0.002  0.022
  4  0.016  0.000  0.002  0.018
  5  0.000  0.080  0.005  0.085
  6  0.000  0.080  0.005  0.085
  7  0.000  0.080  0.005  0.085
  8  0.000  0.080  0.005  0.085
tot  0.069  0.321  0.027  0.416
 

 k-point    2 :    0.33333333 0.00000000 0.00000000     weight = 0.22222222

band   1 # energy   -8.94640975 # occ.  2.00000000
 
ion      s      p      d    tot
  1  0.010  0.001  0.006  0.017
  2  0.010  0.001  0.006  0.017
  3  0.010  0.001  0.006  0.017
  4  0.010  0.001  0.006  0.017
  5  0.146  0.000  0.000  0.146
  6  0.146  0.000  0.000  0.146
  7  0.146  0.000  0.000  0.146
  8  0.146  0.000  0.000  0.146
tot  0.626  0.003  0.023  0.652
 
band   2 # energy   -8.72785096 # occ.  2.00000000
 
ion      s      p      d    tot
  1  0.004  0.002  0.022  0.028
  2  0.004  0.002  0.022  0.028
  3  0.004  0.002  0.022  0.028
  4  0.004  0.002  0.022  0.028
  5  0.147  0.000  0.000  0.147
  6  0.147  0.000  0.000  0.147
  7  0.147  0.000  0.000  0.147
  8  0.147  0.000  0.000  0.147
tot  0.601  0.009  0.087  0.696
 
band   3 # energy   -8.62499021 # occ.  2.00000000
 
ion      s      p      d    tot
  1  0.000  0.003  0.033  0.035
  2  0.000  0.003  0.033  0.035
  3  0.000  0.003  0.033  0.035
  4  0.000  0.003  0.033  0.035
  5  0.257  0.000  0.000  0.257
  6  0.033  0.000  0.000  0.033
  7  0.033  0.000  0.000  0.033
  8  0.257  0.000  0.000  0.257
tot  0.580  0.011  0.130  0.722
 
band   4 # energy   -8.62499021 # occ.  2.00000000
 
ion      s      p      d    tot
  1  0.000  0.003  0.033  0.035
  2  0.000  0.003  0.033  0.035
  3  0.000  0.003  0.033  0.035
  4  0.000  0.003  0.033  0.035
  5  0.033  0.000  0.000  0.033
  6  0.257  0.000  0.000  0.257
  7  0.257  0.000  0.000  0.257
  8  0.033  0.000  0.000  0.033
tot  0.580  0.011  0.130  0.722
 
band   5 # energy   -6.30937754 # occ.  2.00000000
 
ion      s      p      d    tot
  1  0.000  0.000  0.229  0.229
  2  0.000  0.000  0.229  0.229
  3  0.000  0.000  0.229  0.229
  4  0.000  0.000  0.229  0.229
  5  0.000  0.004  0.000  0.004
  6  0.000  0.004  0.000  0.004
  7  0.000  0.004  0.000  0.004
  8  0.000  0.004  0.000  0.004
tot  0.000  0.015  0.918  0.932
 
band   6 # energy   -6.30937754 # occ.  2.00000000
 
ion      s      p      d    tot
  1  0.000  0.000  0.229  0.229
  2  0.000  0.000  0.229  0.229
  3  0.000  0.000  0.229  0.229
  4  0.000  0.000  0.229  0.229
  5  0.000  0.004  0.000  0.004
  6  0.000  0.004  0.000  0.004
  7  0.000  0.004  0.000  0.004
  8  0.000  0.004  0.000  0.004
tot  0.000  0.015  0.918  0.932
 
band   7 # energy   -6.26138708 # occ.  2.00000000
 
ion      s      p      d    tot
  1  0.001  0.000  0.222  0.223
  2  0.001  0.000  0.222  0.223
  3  0.001  0.000  0.222  0.223
  4  0.001  0.000  0.222  0.223
  5  0.002  0.004  0.000  0.006
  6  0.002  0.004  0.000  0.006
  7  0.002  0.004  0.000  0.006
  8  0.002  0.004  0.000  0.006
tot  0.014  0.016  0.888  0.917
 
band   8 # energy   -6.24415292 # occ.  2.00000000
 
ion      s      p      d    tot
  1  0.000  0.000  0.232  0.233
  2  0.000  0.000  0.232  0.233
  3  0.000  0.000  0.232  0.233
  4  0.000  0.000  0.232  0.233
  5  0.000  0.002  0.000  0.003
  6  0.000  0.002  0.000  0.003
  7  0.000  0.002  0.000  0.003
  8  0.000  0.002  0.000  0.003
tot  0.000  0.010  0.931  0.941
 
band   9 # energy   -6.24415292 # occ.  2.00000000
 
ion      s      p      d    tot
  1  0.000  0.000  0.232  0.233
  2  0.000  0.000  0.232  0.233
  3  0.000  0.000  0.232  0.233
  4  0.000  0.000  0.232  0.233
  5  0.000  0.002  0.000  0.003
  6  0.000  0.002  0.000  0.003
  7  0.000  0.002  0.000  0.003
  8  0.000  0.002  0.000  0.003
tot  0.000  0.010  0.931  0.941
 
band  10 # energy   -6.23434878 # occ.  2.00000000
 
ion      s      p      d    tot
  1  0.000  0.000  0.234  0.234
  2  0.000  0.000  0.234  0.234
  3  0.000  0.000  0.234  0.234
  4  0.000  0.000  0.234  0.234
  5  0.000  0.000  0.000  0.000
  6  0.000  0.003  0.001  0.004
  7  0.000  0.003  0.001  0.004
  8  0.000  0.000  0.000  0.000
tot  0.000  0.007  0.936  0.942
 
band  11 # energy   -6.23434878 # occ.  2.00000000
 
ion      s      p      d    tot
  1  0.000  0.000  0.234  0.234
  2  0.000  0.000  0.234  0.234
  3  0.000  0.000  0.234  0.234
  4  0.000  0.000  0.234  0.234
  5  0.000  0.003  0.001  0.004
  6  0.000  0.000  0.000  0.000
  7  0.000  0.000  0.000  0.000
  8  0.000  0.003  0.001  0.004
tot  0.000  0.007  0.936  0.942
 
band  12 # energy   -6.23097781 # occ.  2.00000000
 
ion      s      p      d    tot
  1  0.000  0.000  0.292  0.292
  2  0.000  0.000  0.292  0.292
  3  0.000  0.000  0.172  0.172
  4  0.000  0.000  0.172  0.172
  5  0.000  0.003  0.000  0.003
  6  0.000  0.003  0.000  0.003
  7  0.000  0.003  0.000  0.003
  8  0.000  0.003  0.000  0.003
tot  0.000  0.011  0.927  0.938
 
band  13 # energy   -6.23097781 # occ.  2.00000000
 
ion      s      p      d    tot
  1  0.000  0.000  0.172  0.172
  2  0.000  0.000  0.172  0.172
  3  0.000  0.000  0.292  0.292
  4  0.000  0.000  0.292  0.292
  5  0.000  0.003  0.000  0.003
  6  0.000  0.003  0.000  0.003
  7  0.000  0.003  0.000  0.003
  8  0.000  0.003  0.000  0.003
tot  0.000  0.011  0.927  0.938
 
band  14 # energy   -6.19380489 # occ.  2.00000000
 
ion      s      p      d    tot
  1  0.000  0.000  0.230  0.231
  2  0.000  0.000  0.230  0.231
  3  0.000  0.000  0.230  0.231
  4  0.000  0.000  0.230  0.231
  5  0.000  0.002  0.000  0.002
  6  0.000  0.002  0.000  0.002
  7  0.000  0.002  0.000  0.002
  8  0.000  0.002  0.000  0.002
tot  0.003  0.006  0.921  0.931
 
band  15 # energy   -6.16565231 # occ.  2.00000000
 
ion      s      p      d    tot
  1  0.000  0.000  0.225  0.225
  2  0.000  0.000  0.225  0.225
  3  0.000  0.000  0.245  0.245
  4  0.000  0.000  0.245  0.245
  5  0.000  0.000  0.000  0.001
  6  0.000  0.000  0.000  0.001
  7  0.000  0.000  0.000  0.001
  8  0.000  0.000  0.000  0.001
tot  0.000  0.002  0.941  0.943
 
band  16 # energy   -6.16565231 # occ.  2.00000000
 
ion      s      p      d    tot
  1  0.000  0.000  0.245  0.245
  2  0.000  0.000  0.245  0.245
  3  0.000  0.000  0.225  0.225
  4  0.000  0.000  0.225  0.225
  5  0.000  0.000  0.000  0.001
  6  0.000  0.000  0.000  0.001
  7  0.000  0.000  0.000  0.001
  8  0.000  0.000  0.000  0.001
tot  0.000  0.002  0.941  0.943
 
band  17 # energy   -6.13461845 # occ.  2.00000000
 
ion      s      p      d    tot
  1  0.000  0.000  0.236  0.236
  2  0.000  0.000  0.236  0.236
  3  0.000  0.000  0.236  0.236
  4  0.000  0.000  0.236  0.236
  5  0.000  0.000  0.000  0.001
  6  0.000  0.000  0.000  0.001
  7  0.000  0.000  0.000  0.001
  8  0.000  0.000  0.000  0.001
tot  0.001  0.000  0.945  0.946
 
band  18 # energy   -6.12259878 # occ.  2.00000000
 
ion      s      p      d    tot
  1  0.000  0.000  0.237  0.237
  2  0.000  0.000  0.237  0.237
  3  0.000  0.000  0.237  0.237
  4  0.000  0.000  0.237  0.237
  5  0.000  0.000  0.000  0.000
  6  0.000  0.000  0.000  0.000
  7  0.000  0.000  0.000  0.000
  8  0.000  0.000  0.000  0.000
tot  0.000  0.000  0.949  0.949
 
band  19 # energy   -6.11757325 # occ.  2.00000000
 
ion      s      p      d    tot
  1  0.000  0.000  0.325  0.325
  2  0.000  0.000  0.325  0.325
  3  0.000  0.000  0.149  0.149
  4  0.000  0.000  0.149  0.149
  5  0.000  0.000  0.000  0.000
  6  0.000  0.000  0.000  0.000
  7  0.000  0.000  0.000  0.000
  8  0.000  0.000  0.000  0.000
tot  0.000  0.000  0.948  0.949
 
band  20 # energy   -6.11757325 # occ.  2.00000000
 
ion      s      p      d    tot
  1  0.000  0.000  0.149  0.149
  2  0.000  0.000  0.149  0.149
  3  0.000  0.000  0.325  0.325
  4  0.000  0.000  0.325  0.325
  5  0.000  0.000  0.000  0.000
  6  0.000  0.000  0.000  0.000
  7  0.000  0.000  0.000  0.000
  8  0.000  0.000  0.000  0.000
tot  0.000  0.000  0.948  0.949
 
band  21 # energy   -6.11005962 # occ.  2.00000000
 
ion      s      p      d    tot
  1  0.000  0.000  0.238  0.238
  2  0.000  0.000  0.238  0.238
  3  0.000  0.000  0.238  0.238
  4  0.000  0.000  0.238  0.238
  5  0.000  0.000  0.000  0.000
  6  0.000  0.000  0.000  0.000
  7  0.000  0.000  0.000  0.000
  8  0.000  0.000  0.000  0.000
tot  0.000  0.000  0.951  0.951
 
band  22 # energy   -5.94931420 # occ.  2.00000000
 
ion      s      p      d    tot
  1  0.002  0.000  0.212  0.214
  2  0.002  0.000  0.212  0.214
  3  0.002  0.000  0.212  0.214
  4  0.002  0.000  0.212  0.214
  5  0.013  0.002  0.000  0.015
  6  0.013  0.002  0.000  0.015
  7  0.013  0.002  0.000  0.015
  8  0.013  0.002  0.000  0.015
tot  0.060  0.008  0.847  0.915
 
band  23 # energy   -5.66583811 # occ.  2.00000000
 
ion      s      p      d    tot
  1  0.000  0.001  0.207  0.207
  2  0.000  0.001  0.207  0.207
  3  0.000  0.001  0.207  0.207
  4  0.000  0.001  0.207  0.207
  5  0.030  0.000  0.000  0.030
  6  0.021  0.000  0.000  0.021
  7  0.021  0.000  0.000  0.021
  8  0.030  0.000  0.000  0.030
tot  0.103  0.003  0.826  0.932
 
band  24 # energy   -5.66583811 # occ.  2.00000000
 
ion      s      p      d    tot
  1  0.000  0.001  0.207  0.207
  2  0.000  0.001  0.207  0.207
  3  0.000  0.001  0.207  0.207
  4  0.000  0.001  0.207  0.207
  5  0.021  0.000  0.000  0.021
  6  0.030  0.000  0.000  0.030
  7  0.030  0.000  0.000  0.030
  8  0.021  0.000  0.000  0.021
tot  0.103  0.003  0.826  0.932
 
band  25 # energy   -2.15917355 # occ.  2.00000000
 
ion      s      p      d    tot
  1  0.056  0.000  0.002  0.059
  2  0.056  0.000  0.002  0.059
  3  0.070  0.000  0.002  0.072
  4  0.070  0.000  0.002  0.072
  5  0.000  0.053  0.001  0.054
  6  0.000  0.053  0.001  0.054
  7  0.000  0.053  0.001  0.054
  8  0.000  0.053  0.001  0.054
tot  0.252  0.213  0.013  0.478
 
band  26 # energy   -2.15917355 # occ.  2.00000000
 
ion      s      p      d    tot
  1  0.070  0.000  0.002  0.072
  2  0.070  0.000  0.002  0.072
  3  0.056  0.000  0.002  0.059
  4  0.056  0.000  0.002  0.059
  5  0.000  0.053  0.001  0.054
  6  0.000  0.053  0.001  0.054
  7  0.000  0.053  0.001  0.054
  8  0.000  0.053  0.001  0.054
tot  0.252  0.213  0.013  0.478
 
band  27 # energy   -1.52969375 # occ.  2.00000000
 
ion      s      p      d    tot
  1  0.052  0.001  0.011  0.064
  2  0.052  0.001  0.011  0.064
  3  0.052  0.001  0.011  0.064
  4  0.052  0.001  0.011  0.064
  5  0.010  0.053  0.001  0.064
  6  0.010  0.053  0.001  0.064
  7  0.010  0.053  0.001  0.064
  8  0.010  0.053  0.001  0.064
tot  0.250  0.218  0.047  0.515
 
band  28 # energy   -0.21996510 # occ.  2.00000000
 
ion      s      p      d    tot
  1  0.001  0.026  0.007  0.034
  2  0.001  0.026  0.007  0.034
  3  0.000  0.005  0.008  0.013
  4  0.000  0.005  0.008  0.013
  5  0.000  0.086  0.000  0.086
  6  0.000  0.086  0.000  0.086
  7  0.000  0.086  0.000  0.086
  8  0.000  0.086  0.000  0.086
tot  0.002  0.404  0.031  0.437
 
band  29 # energy   -0.21996510 # occ.  2.00000000
 
ion      s      p      d    tot
  1  0.000  0.005  0.008  0.013
  2  0.000  0.005  0.008  0.013
  3  0.001  0.026  0.007  0.034
  4  0.001  0.026  0.007  0.034
  5  0.000  0.086  0.000  0.086
  6  0.000  0.086  0.000  0.086
  7  0.000  0.086  0.000  0.086
  8  0.000  0.086  0.000  0.086
tot  0.002  0.404  0.031  0.437
 
band  30 # energy   -0.11484529 # occ.  2.00000000
 
ion      s      p      d    tot
  1  0.000  0.019  0.002  0.021
  2  0.000  0.019  0.002  0.021
  3  0.000  0.019  0.002  0.021
  4  0.000  0.019  0.002  0.021
  5  0.000  0.040  0.001  0.040
  6  0.000  0.131  0.000  0.131
  7  0.000  0.131  0.000  0.131
  8  0.000  0.040  0.001  0.040
tot  0.000  0.417  0.011  0.428
 
band  31 # energy   -0.11484529 # occ.  2.00000000
 
ion      s      p      d    tot
  1  0.000  0.019  0.002  0.021
  2  0.000  0.019  0.002  0.021
  3  0.000  0.019  0.002  0.021
  4  0.000  0.019  0.002  0.021
  5  0.000  0.131  0.000  0.131
  6  0.000  0.040  0.001  0.040
  7  0.000  0.040  0.001  0.040
  8  0.000  0.131  0.000  0.131
tot  0.000  0.417  0.011  0.428
 
band  32 # energy    0.04593352 # occ.  2.00000000
 
ion      s      p      d    tot
  1  0.040  0.003  0.013  0.056