    2    2  100    1
  0.3405476E+02  0.4583961E-09  0.4583961E-09  0.4583961E-09  0.5000000E-15
  1.000000000000000E-004
  CAR 
 Name                                    
     18     16     64
 
  0.0000000E+00  0.0000000E+00  0.0000000E+00  0.4629630E-02
    1       -9.023993
    2       -6.090773
    3       -6.090773
    4       -6.090773
    5       -5.832221
    6       -5.832221
    7        2.141405
    8        2.141405
    9        2.141405
   10        2.777258
   11        6.689668
   12        6.689668
   13        6.689669
   14        9.427951
   15       11.469441
   16       11.469441
   17       12.127157
   18       12.127158
   19       12.127158
   20       14.431912
   21       21.821165
   22       21.821165
   23       21.821165
   24       22.773261
   25       22.773261
   26       22.773261
   27       23.818346
   28       23.818346
   29       23.818346
   30       24.453140
   31       24.453140
   32       29.415335
   33       30.448800
   34       30.448800
   35       30.448800
   36       30.647589
   37       31.274391
   38       31.274391
   39       33.157046
   40       33.157046
   41       33.157046
   42       33.234985
   43       33.234986
   44       33.234986
   45       34.630148
   46       34.630148
   47       34.630148
   48       35.240560
   49       35.240560
   50       35.240560
   51       36.266873
   52       36.266873
   53       36.266873
   54       37.348177
   55       39.198400
   56       39.198400
   57       40.894418
   58       40.894418
   59       40.894419
   60       41.351141
   61       41.351141
   62       41.351141
   63       41.537175
   64       45.749418
 
  0.1666667E+00  0.0000000E+00  0.0000000E+00  0.3703704E-01
    1       -8.924194
    2       -6.072297
    3       -6.072297
    4       -6.009728
    5       -5.833414
    6       -5.833414
    7        0.376194
    8        1.913958
    9        1.913958
   10        3.901616
   11        6.780109
   12        7.026625
   13        7.026626
   14       10.431269
   15       10.555612
   16       10.555612
   17       11.775201
   18       13.942546
   19       13.942546
   20       16.152855
   21       19.205935
   22       19.205936
   23       19.697748
   24       21.986388
   25       23.090414
   26       23.090414
   27       23.910758
   28       23.910758
   29       25.302959
   30       26.858017
   31       26.858017
   32       28.018609
   33       28.018609
   34       28.272093
   35       29.941771
   36       30.713777
   37       30.713778
   38       31.176817
   39       31.344428
   40       31.684023
   41       31.838567
   42       31.838568
   43       33.761600
   44       33.761601
   45       34.704176
   46       35.121646
   47       35.121646
   48       36.157216
   49       36.250121
   50       36.250122
   51       37.207774
   52       37.664398
   53       37.664398
   54       37.938076
   55       39.523610
   56       39.523611
   57       39.735085
   58       41.541466
   59       41.541466
   60       42.173244
   61       43.951984
   62       43.951984
   63       45.235020
   64       45.235020
 
  0.3333333E+00  0.0000000E+00  0.0000000E+00  0.3703704E-01
    1       -8.723912
    2       -6.040507
    3       -6.040507
    4       -5.829499
    5       -5.829499
    6       -5.736708
    7       -1.452572
    8        1.534164
    9        1.534164
   10        3.973371
   11        7.308236
   12        7.308237
   13        8.280049
   14       10.064150
   15       10.959376
   16       10.959376
   17       14.205690
   18       15.784746
   19       15.784746
   20       16.427881
   21       16.876012
   22       16.876012
   23       19.389543
   24       22.375137
   25       23.441980
   26       23.441980
   27       23.505004
   28       23.850668
   29       23.850668
   30       24.473387
   31       24.473387
   32       27.078646
   33       27.708534
   34       28.948205
   35       28.948206
   36       29.186758
   37       29.420215
   38       29.420215
   39       30.024688
   40       30.784875
   41       32.234430
   42       32.234430
   43       33.655224
   44       33.655224
   45       35.300184
   46       35.503462
   47       35.503463
   48       36.428347
   49       37.250923
   50       37.250923
   51       39.680197
   52       39.680197
   53       39.699719
   54       41.004157
   55       41.004157
   56       41.491007
   57       41.847869
   58       42.451495
   59       42.451495
   60       42.850903
   61       43.427021
   62       43.427021
   63       45.178601
   64       46.002560
 
  0.5000000E+00  0.0000000E+00  0.0000000E+00  0.1851852E-01
    1       -8.625383
    2       -6.028157
    3       -6.028157
    4       -5.823384
    5       -5.823383
    6       -5.492108
    7       -2.288226
    8        1.369442
    9        1.369442
   10        3.863556
   11        7.271557
   12        7.271557
   13        9.067027
   14       10.632606
   15       12.379649
   16       12.379649
   17       13.381373
   18       13.706680
   19       13.706680
   20       17.994738
   21       19.497924
   22       19.497924
   23       20.179188
   24       20.498734
   25       20.498734
   26       22.612655
   27       23.286134
   28       23.736894
   29       24.256413
   30       24.256413
   31       24.547263
   32       24.547263
   33       27.573183
   34       28.266627
   35       28.266628
   36       28.402770
   37       28.846817
   38       28.846818
   39       29.007103
   40       30.261647
   41       33.580080
   42       33.580080
   43       34.669820
   44       34.669820
   45       35.629066
   46       35.629066
   47       36.013360
   48       36.922040
   49       36.922040
   50       38.400155
   51       39.737703
   52       40.195662
   53       40.195662
   54       40.212803
   55       40.212804
   56       42.125348
   57       42.761397
   58       42.761397
   59       43.836997
   60       44.357994
   61       44.854051
   62       45.353598
   63       45.353598
   64       46.432637
 
  0.1666667E+00  0.1666667E+00  0.0000000E+00  0.2777778E-01
    1       -8.891256
    2       -6.053551
    3       -6.053551
    4       -6.010760
    5       -5.840474
    6       -5.824616
    7        0.366833
    8        1.536861
    9        1.536861
   10        4.550220
   11        5.773379
   12        7.633947
   13        7.633947
   14        9.234298
   15       11.189871
   16       11.710468
   17       12.883178
   18       12.883179
   19       13.492439
   20       17.148770
   21       19.028829
   22       19.028829
   23       19.545132
   24       20.384652
   25       22.815560
   26       22.815560
   27       23.224452
   28       25.412211
   29       26.907923
   30       26.907923
   31       27.110311
   32       27.143796
   33       27.820121
   34       27.820121
   35       28.412849
   36       30.561866
   37       30.561866
   38       30.583112
   39       31.689615
   40       32.353156
   41       32.353156
   42       32.399857
   43       33.173157
   44       33.816148
   45       33.835544
   46       35.733838
   47       35.970395
   48       35.970395
   49       36.079975
   50       36.860034
   51       36.860034
   52       37.155246
   53       38.294490
   54       38.294490
   55       39.438282
   56       40.084513
   57       40.120816
   58       40.120816
   59       41.701814
   60       42.053367
   61       43.650520
   62       44.961283
   63       44.961283
   64       45.131019
 
  0.3333333E+00  0.1666667E+00  0.0000000E+00  0.1111111E+00
    1       -8.725492
    2       -6.028803
    3       -6.017543
    4       -5.883370
    5       -5.818857
    6       -5.761213
    7       -1.002396
    8        1.013142
    9        1.130045
   10        4.927938
   11        6.106540
   12        7.776707
   13        8.197404
   14        9.937335
   15       11.790922
   16       11.846996
   17       13.708507
   18       14.823953
   19       15.947353
   20       16.016967
   21       16.217954
   22       19.229538
   23       19.753907
   24       20.052486
   25       20.829098
   26       22.840919
   27       23.308063
   28       24.624452
   29       25.258348
   30       25.405288
   31       26.542788
   32       26.753948
   33       27.531212
   34       28.081733
   35       28.617041
   36       29.085670
   37       29.769233
   38       29.953321
   39       31.251140
   40       31.745769
   41       31.803011
   42       32.436320
   43       33.719704
   44       34.197416
   45       34.757241
   46       34.775133
   47       35.414458
   48       36.892012
   49       37.112078
   50       37.336169
   51       37.922746
   52       38.957178
   53       39.236401
   54       40.066285
   55       40.269633
   56       41.289452
   57       41.438781
   58       42.224046
   59       42.573468
   60       42.790321
   61       43.879133
   62       44.312795
   63       44.864314
   64       45.718470
 
  0.5000000E+00  0.1666667E+00  0.0000000E+00  0.1111111E+00
    1       -8.595669
    2       -6.014248
    3       -6.002195
    4       -5.848464
    5       -5.820439
    6       -5.468328
    7       -2.078275
    8        0.486094
    9        1.048806
   10        4.836724
   11        6.765512
   12        8.018758
   13        8.622906
   14       10.839507
   15       12.030179
   16       12.471478
   17       13.325454
   18       13.980971
   19       16.519641
   20       17.302822
   21       17.871991
   22       18.983866
   23       19.840613
   24       20.182028
   25       20.976536
   26       21.895003
   27       22.732267
   28       23.400355
   29       23.787018
   30       24.541200
   31       25.001104
   32       25.392018
   33       25.823763
   34       27.674935
   35       27.914224
   36       28.706394
   37       28.943460
   38       30.059342
   39       31.365954
   40       32.014010
   41       32.459762
   42       32.823210
   43       33.673692
   44       34.830887
   45       35.486544
   46       36.376812
   47       36.415203
   48       36.972622
   49       37.149714
   50       37.999657
   51       38.849491
   52       38.887578
   53       40.512171
   54       40.527818
   55       40.978613
   56       41.849776
   57       41.893848
   58       43.332067
   59       43.941859
   60       44.160851
   61       44.967110
   62       44.982002
   63       45.375540
   64       46.325137
 
 -0.3333333E+00  0.1666667E+00  0.0000000E+00  0.1111111E+00
    1       -8.627642
    2       -6.016051
    3       -6.015306
    4       -5.835751
    5       -5.834757
    6       -5.550236
    7       -1.816318
    8        0.352090
    9        1.345451
   10        4.890134
   11        7.010401
   12        7.717143
   13        8.387079
   14       10.553004
   15       11.205008
   16       12.379208
   17       13.475591
   18       15.205353
   19       16.307215
   20       16.398905
   21       17.497735
   22       19.133525
   23       20.025146
   24       20.942885
   25       21.467775
   26       21.543709
   27       22.250249
   28       23.453658
   29       23.643625
   30       24.679937
   31       24.890727
   32       25.953151
   33       27.549329
   34       27.568776
   35       28.098614
   36       28.881756
   37       29.197158
   38       29.952947
   39       31.491063
   40       31.556864
   41       32.524686
   42       32.686596
   43       33.060128
   44       33.482335
   45       34.792843
   46       36.253999
   47       37.078800
   48       37.089002
   49       38.158564
   50       38.274216
   51       39.211540
   52       39.318385
   53       39.651143
   54       40.509400
   55       40.945015
   56       41.269025
   57       41.782263
   58       43.040154
   59       43.063517
   60       43.659747
   61       44.308285
   62       44.959174
   63       45.971317
   64       46.010272
 
 -0.1666667E+00  0.1666667E+00  0.0000000E+00  0.5555556E-01
    1       -8.791183
    2       -6.051160
    3       -6.037063
    4       -5.884529
    5       -5.841902
    6       -5.809774
    7       -0.598144
    8        0.887768
    9        1.794008
   10        4.723626
   11        6.751733
   12        7.256125
   13        7.563413
   14        9.803779
   15       11.024304
   16       11.781893
   17       12.885821
   18       14.095425
   19       15.873031
   20       16.250351
   21       18.215281
   22       19.206999
   23       19.243280
   24       19.822015
   25       21.027683
   26       23.078536
   27       24.486879
   28       24.608697
   29       25.606482
   30       26.242014
   31       26.249177
   32       27.246564
   33       27.802672
   34       28.315573
   35       28.749412
   36       28.927858
   37       29.524580
   38       30.469928
   39       31.035102
   40       31.963803
   41       32.324426
   42       32.375140
   43       32.990066
   44       33.723973
   45       34.681138
   46       34.891197
   47       35.011163
   48       35.901820
   49       36.908202
   50       37.129114
   51       37.954135
   52       38.915772
   53       39.586098
   54       40.178941
   55       40.188568
   56       41.338731
   57       41.821891
   58       42.384532
   59       42.705290
   60       42.859666
   61       43.192323
   62       43.373708
   63       44.268476
   64       44.607249
 
  0.3333333E+00  0.3333333E+00  0.0000000E+00  0.2777778E-01
    1       -8.628936
    2       -5.972728
    3       -5.972728
    4       -5.923161
    5       -5.809400
    6       -5.648967
    7       -1.350970
    8        0.647211
    9        0.647211
   10        4.795074
   11        5.206923
   12        9.366245
   13        9.570652
   14        9.570652
   15       12.378033
   16       13.967928
   17       15.043504
   18       15.043504
   19       15.275019
   20       15.721842
   21       15.721842
   22       17.033486
   23       17.213120
   24       21.559339
   25       21.983458
   26       22.787499
   27       22.787499
   28       23.482262
   29       23.882189
   30       23.882189
   31       25.150361
   32       27.346144
   33       28.574765
   34       28.574765
   35       28.986250
   36       29.496302
   37       30.042674
   38       30.042674
   39       31.051735
   40       31.837409
   41       32.331233
   42       32.331234
   43       33.607515
   44       33.744985
   45       34.661695
   46       34.661695
   47       34.784717
   48       35.443175
   49       38.280816
   50       38.629127
   51       38.629127
   52       39.032097
   53       39.050114
   54       40.459609
   55       40.459609
   56       40.602606
   57       40.665678
   58       42.804509
   59       42.804509
   60       42.922383
   61       44.106252
   62       45.889181
   63       45.889181
   64       47.158794
 
  0.5000000E+00  0.3333333E+00  0.0000000E+00  0.1111111E+00
    1       -8.534748
    2       -5.971572
    3       -5.951709
    4       -5.897906
    5       -5.810423
    6       -5.404158
    7       -1.966806
    8       -0.015798
    9        0.514701
   10        4.883433
   11        5.771418
   12        9.022393
   13        9.765209
   14       11.107765
   15       12.776210
   16       13.523682
   17       14.162884
   18       14.475959
   19       16.405754
   20       16.835949
   21       17.342128
   22       17.511224
   23       18.288410
   24       19.116372
   25       20.748756
   26       21.139192
   27       21.490671
   28       23.289353
   29       24.227582
   30       25.016206
   31       25.469458
   32       25.855232
   33       26.009814
   34       28.235601
   35       28.798810
   36       29.148975
   37       29.618417
   38       30.441748
   39       30.961091
   40       31.906083
   41       32.010020
   42       33.220965
   43       33.411201
   44       33.859913
   45       35.394755
   46       35.439108
   47       36.599131
   48       36.939273
   49       37.090361
   50       37.924672
   51       38.435665
   52       39.645485
   53       39.944611
   54       40.013693
   55       41.346839
   56       41.760271
   57       42.302737
   58       43.309478
   59       43.543712
   60       44.492449
   61       44.819387
   62       45.315867
   63       46.738391
   64       46.981841
 
 -0.3333333E+00  0.3333333E+00  0.0000000E+00  0.5555556E-01
    1       -8.535105
    2       -5.990870
    3       -5.970748
    4       -5.859655
    5       -5.827547
    6       -5.343813
    7       -2.001378
    8       -0.473280
    9        0.822891
   10        5.107666
   11        7.178077
   12        8.920244
   13        9.027851
   14        9.525275
   15       11.080296
   16       14.214200
   17       14.743253
   18       15.579651
   19       16.138962
   20       16.407562
   21       17.607978
   22       19.363865
   23       19.467110
   24       19.685660
   25       20.408972
   26       21.403337
   27       21.497357
   28       22.763755
   29       23.504365
   30       23.918371
   31       24.130923
   32       25.045862
   33       26.150234
   34       28.513289
   35       28.956293
   36       29.163028
   37       29.273691
   38       29.707846
   39       30.698364
   40       31.350469
   41       32.881611
   42       32.976436
   43       33.528453
   44       34.803230
   45       36.387904
   46       36.439325
   47       36.864946
   48       37.396555
   49       38.020569
   50       38.599024
   51       39.359852
   52       39.406487
   53       39.463839
   54       40.020788
   55       40.578551
   56       41.111754
   57       42.337469
   58       42.342448
   59       43.470858
   60       44.421730
   61       44.582969
   62       45.782966
   63       45.980051
   64       45.994060
 
  0.5000000E+00  0.5000000E+00  0.0000000E+00  0.1388889E-01
    1       -8.503623
    2       -5.936926
    3       -5.928640
    4       -5.928640
    5       -5.801760
    6       -5.358417
    7       -2.170782
    8        0.282364
    9        0.282364
   10        4.647154
   11        4.739338
   12       10.820923
   13       11.167905
   14       11.167906
   15       12.942620
   16       13.631490
   17       13.631490
   18       14.056616
   19       15.827676
   20       17.514764
   21       17.765895
   22       17.765895
   23       18.152550
   24       18.238796
   25       19.330979
   26       19.330979
   27       20.625327
   28       24.363263
   29       24.478944
   30       24.478944
   31       26.834694
   32       27.882282
   33       27.882283
   34       28.317581
   35       28.776647
   36       28.882274
   37       29.032397
   38       29.677878
   39       29.677878
   40       30.753177
   41       33.428190
   42       33.488680
   43       33.621156
   44       33.621156
   45       35.044618
   46       35.093974
   47       35.093974
   48       35.125102
   49       37.297879
   50       37.571740
   51       37.571740
   52       40.376380
   53       41.369725
   54       41.934110
   55       42.633265
   56       42.801743
   57       42.801743
   58       43.853151
   59       43.903976
   60       43.903976
   61       45.112801
   62       45.792830
   63       46.005374
   64       46.005375
 
  0.5000000E+00  0.3333333E+00  0.1666667E+00  0.1111111E+00
    1       -8.597074
    2       -5.996236
    3       -5.988745
    4       -5.873596
    5       -5.819745
    6       -5.527013
    7       -1.653733
    8        0.067492
    9        0.825252
   10        5.636931
   11        6.198045
   12        7.361989
   13        9.464728
   14       10.246458
   15       12.321640
   16       13.486078
   17       13.606355
   18       14.290004
   19       15.948418
   20       16.913894
   21       17.368618
   22       18.355990
   23       19.812849
   24       20.353141
   25       20.472926
   26       21.608722
   27       21.884524
   28       23.149260
   29       24.357836
   30       24.798592
   31       25.349245
   32       26.178561
   33       26.734286
   34       27.581368
   35       28.205415
   36       28.662163
   37       29.640117
   38       30.645979
   39       30.852879
   40       31.982621
   41       32.762669
   42       33.638341
   43       33.736464
   44       34.241475
   45       34.918721
   46       35.509828
   47       35.699719
   48       36.456546
   49       37.327193
   50       38.099647
   51       38.460217
   52       39.321574
   53       40.059726
   54       40.287095
   55       41.359047
   56       41.725266
   57       42.170602
   58       42.466614
   59       43.507949
   60       43.800647
   61       44.440507
   62       44.980742
   63       45.248073
   64       45.984561
 
 -0.3333333E+00  0.3333333E+00  0.1666667E+00  0.1111111E+00
    1       -8.535105
    2       -5.988734
    3       -5.974202
    4       -5.856703
    5       -5.829297
    6       -5.343058
    7       -2.037824
    8       -0.248410
    9        0.542995
   10        5.771839
   11        6.683352
   12        7.810800
   13        9.333328
   14       10.007953
   15       12.518484
   16       13.283396
   17       13.658814
   18       15.940986
   19       16.416444
   20       16.657067
   21       17.631326
   22       18.525321
   23       19.583866
   24       20.213675
   25       20.951793
   26       21.412878
   27       21.779574
   28       22.132055
   29       22.524816
   30       24.560710
   31       25.376130
   32       25.458166
   33       26.359892
   34       26.723463
   35       27.136376
   36       28.736135
   37       28.861543
   38       31.759965
   39       31.995723
   40       32.354801
   41       33.048167
   42       33.157168
   43       34.027544
   44       34.364647
   45       34.817376
   46       35.660055
   47       36.421988
   48       36.814662
   49       37.859136
   50       38.792492
   51       39.101326
   52       39.348221
   53       39.628398
   54       40.787580
   55       41.318649
   56       41.522981
   57       42.480469
   58       43.139364
   59       43.686492
   60       44.098835
   61       44.758193
   62       44.957072
   63       45.274764
   64       45.585006
 
 -0.3333333E+00  0.5000000E+00  0.1666667E+00  0.5555556E-01
    1       -8.504838
    2       -5.960849
    3       -5.959899
    4       -5.879855
    5       -5.819533
    6       -5.296571
    7       -2.082153
    8       -0.071762
    9        0.020551
   10        5.785811
   11        5.835872
   12        8.733571
   13        9.015131
   14       11.609907
   15       13.152480
   16       13.389492
   17       13.512309
   18       15.904634
   19       16.761325
   20       17.248423
   21       17.279703
   22       17.398943
   23       17.560963
   24       20.303262
   25       20.419388
   26       21.416644
   27       21.752356
   28       22.118308
   29       22.668768
   30       24.297620
   31       24.949119
   32       25.508547
   33       26.601569
   34       28.360266
   35       28.402841
   36       28.863373
   37       29.898421
   38       29.927954
   39       30.764919
   40       31.785264
   41       32.410572
   42       33.527233
   43       34.630437
   44       34.813896
   45       35.079828
   46       35.415021
   47       36.874338
   48       37.358948
   49       37.536566
   50       38.246881
   51       38.452780
   52       38.788083
   53       39.659454
   54       40.426278
   55       40.798213
   56       42.596761
   57       42.771083
   58       43.047615
   59       44.263509
   60       44.871760
   61       44.958058
   62       45.349205
   63       45.431437
   64       46.537108
