       N       E                     dE             d eps       ncg     rms          rms(c)
DAV:   1     0.360298342417E+04    0.36030E+04   -0.18949E+05  7176   0.170E+03
DAV:   2     0.202209838109E+03   -0.34008E+04   -0.32117E+04  7960   0.355E+02
DAV:   3    -0.398235444431E+03   -0.60045E+03   -0.59120E+03  9472   0.172E+02
DAV:   4    -0.438668865404E+03   -0.40433E+02   -0.40257E+02  9600   0.490E+01
DAV:   5    -0.440205248228E+03   -0.15364E+01   -0.15341E+01  9768   0.928E+00    0.298E+01
DAV:   6    -0.419545013248E+03    0.20660E+02   -0.41678E+01  9464   0.103E+01    0.157E+01
DAV:   7    -0.417064428859E+03    0.24806E+01   -0.14749E+01 10256   0.640E+00    0.783E+00
DAV:   8    -0.416895124091E+03    0.16930E+00   -0.30725E+00  8672   0.319E+00    0.184E+00
DAV:   9    -0.416820965805E+03    0.74158E-01   -0.75754E-01  9296   0.175E+00    0.733E-01
DAV:  10    -0.416833438713E+03   -0.12473E-01   -0.11437E-01  9016   0.610E-01    0.470E-01
DAV:  11    -0.416833122895E+03    0.31582E-03   -0.14131E-02  9808   0.270E-01    0.202E-01
DAV:  12    -0.416834483979E+03   -0.13611E-02   -0.91831E-03  9824   0.153E-01    0.104E-01
DAV:  13    -0.416834655246E+03   -0.17127E-03   -0.12919E-03  8368   0.771E-02    0.726E-02
DAV:  14    -0.416834699083E+03   -0.43837E-04   -0.27016E-04  8520   0.287E-02    0.321E-02
DAV:  15    -0.416834742028E+03   -0.42945E-04   -0.15564E-04  8176   0.205E-02    0.120E-02
DAV:  16    -0.416834745696E+03   -0.36677E-05   -0.13387E-05 10784   0.707E-03    0.122E-02
DAV:  17    -0.416834745425E+03    0.27073E-06   -0.39854E-06  8296   0.351E-03    0.512E-03
DAV:  18    -0.416834745558E+03   -0.13295E-06   -0.82786E-06 10208   0.454E-03    0.393E-03
DAV:  19    -0.416834745530E+03    0.28227E-07   -0.89838E-07  8488   0.217E-03    0.212E-03
DAV:  20    -0.416834745551E+03   -0.21471E-07   -0.51299E-07  9592   0.109E-03    0.455E-04
DAV:  21    -0.416834745572E+03   -0.21202E-07   -0.42830E-08  8552   0.438E-04    0.295E-04
DAV:  22    -0.416834745570E+03    0.26084E-08   -0.54407E-09  7592   0.194E-04    0.285E-04
DAV:  23    -0.416834745577E+03   -0.68067E-08   -0.95332E-10  8480   0.129E-04    0.209E-04
DAV:  24    -0.416834745576E+03    0.50932E-09    0.84358E-10  8416   0.812E-05    0.202E-04
DAV:  25    -0.416834745574E+03    0.17753E-08    0.22640E-09  6296   0.410E-05    0.197E-04
DAV:  26    -0.416834745574E+03    0.36380E-11    0.23327E-09  4824   0.248E-05    0.196E-04
DAV:  27    -0.416834745575E+03   -0.45111E-09    0.15331E-09  4288   0.197E-05    0.195E-04
DAV:  28    -0.416834745575E+03   -0.22919E-09    0.21228E-09  4232   0.208E-05    0.195E-04
DAV:  29    -0.416834745575E+03   -0.14916E-09    0.20612E-09  4200   0.128E-05    0.195E-04
DAV:  30    -0.416834745575E+03   -0.16371E-09    0.14821E-09  4208   0.690E-06    0.195E-04
DAV:  31    -0.416834745575E+03    0.27285E-09    0.15449E-09  4200   0.591E-06    0.195E-04
DAV:  32    -0.416834745576E+03   -0.43292E-09    0.11520E-09  4208   0.423E-06    0.195E-04
DAV:  33    -0.416834745575E+03    0.88403E-09    0.10940E-09  4200   0.348E-06    0.195E-04
DAV:  34    -0.416834745575E+03   -0.34925E-09    0.12347E-09  4208   0.335E-06    0.195E-04
DAV:  35    -0.416834745575E+03    0.94587E-10    0.11830E-09  4200   0.151E-06    0.195E-04
DAV:  36    -0.416834745575E+03   -0.39290E-09    0.11112E-09  4136   0.112E-06    0.195E-04
DAV:  37    -0.416834745575E+03    0.25102E-09    0.10380E-09  4096   0.848E-07    0.195E-04
DAV:  38    -0.416834745575E+03   -0.11278E-09    0.72056E-10  4016   0.723E-07    0.195E-04
DAV:  39    -0.416834745575E+03   -0.20736E-09    0.79165E-10  3976   0.693E-07    0.195E-04
DAV:  40    -0.416834745575E+03    0.26193E-09    0.65276E-10  3968   0.378E-07    0.195E-04
DAV:  41    -0.416834745575E+03    0.00000E+00    0.59033E-10  3968   0.251E-07
   1 F= -.41683475E+03 E0= -.41683475E+03  d E =0.000000E+00
