  96  96   0   0
  0.2080188E+02  0.1257760E-08  0.1245754E-08  0.1274818E-08  0.5000000E-15
  1.000000000000000E-004
  CAR 
 MAPbI3-Cubic                            
     10.12480146    -22.36821685  301      1.18922143      1.00000000
    -22.368  0.0000E+00  0.0000E+00
    -22.260  0.0000E+00  0.0000E+00
    -22.152  0.0000E+00  0.0000E+00
    -22.043  0.0000E+00  0.0000E+00
    -21.935  0.0000E+00  0.0000E+00
    -21.827  0.0000E+00  0.0000E+00
    -21.718  0.0000E+00  0.0000E+00
    -21.610  0.0000E+00  0.0000E+00
    -21.502  0.0000E+00  0.0000E+00
    -21.393  0.0000E+00  0.0000E+00
    -21.285  0.0000E+00  0.0000E+00
    -21.177  0.0000E+00  0.0000E+00
    -21.068  0.0000E+00  0.0000E+00
    -20.960  0.0000E+00  0.0000E+00
    -20.852  0.0000E+00  0.1600E+02
    -20.744  0.0000E+00  0.1600E+02
    -20.635  0.0000E+00  0.1600E+02
    -20.527  0.0000E+00  0.1600E+02
    -20.419  0.0000E+00  0.1600E+02
    -20.310  0.0000E+00  0.1600E+02
    -20.202  0.0000E+00  0.1600E+02
    -20.094  0.0000E+00  0.1600E+02
    -19.985  0.0000E+00  0.1600E+02
    -19.877  0.0000E+00  0.1600E+02
    -19.769  0.0000E+00  0.1600E+02
    -19.660  0.0000E+00  0.1600E+02
    -19.552  0.0000E+00  0.1600E+02
    -19.444  0.0000E+00  0.1600E+02
    -19.336  0.0000E+00  0.1600E+02
    -19.227  0.0000E+00  0.1600E+02
    -19.119  0.0000E+00  0.1600E+02
    -19.011  0.0000E+00  0.1600E+02
    -18.902  0.0000E+00  0.1600E+02
    -18.794  0.0000E+00  0.1600E+02
    -18.686  0.0000E+00  0.1600E+02
    -18.577  0.0000E+00  0.1600E+02
    -18.469  0.0000E+00  0.1600E+02
    -18.361  0.0000E+00  0.1600E+02
    -18.252  0.0000E+00  0.1600E+02
    -18.144  0.0000E+00  0.1600E+02
    -18.036  0.0000E+00  0.1600E+02
    -17.928  0.0000E+00  0.1600E+02
    -17.819  0.0000E+00  0.1600E+02
    -17.711  0.0000E+00  0.1600E+02
    -17.603  0.0000E+00  0.1600E+02
    -17.494  0.0000E+00  0.1600E+02
    -17.386  0.0000E+00  0.1600E+02
    -17.278  0.0000E+00  0.1600E+02
    -17.169  0.8504E+02  0.4610E+02
    -17.061  0.0000E+00  0.9600E+02
    -16.953  0.0000E+00  0.9600E+02
    -16.844  0.0000E+00  0.9600E+02
    -16.736  0.0000E+00  0.9600E+02
    -16.628  0.0000E+00  0.9600E+02
    -16.519  0.0000E+00  0.9600E+02
    -16.411  0.0000E+00  0.9600E+02
    -16.303  0.0000E+00  0.9600E+02
    -16.195  0.0000E+00  0.9600E+02
    -16.086  0.0000E+00  0.9600E+02
    -15.978  0.0000E+00  0.9600E+02
    -15.870  0.0000E+00  0.9600E+02
    -15.761  0.0000E+00  0.9600E+02
    -15.653  0.0000E+00  0.9600E+02
    -15.545  0.0000E+00  0.9600E+02
    -15.436  0.0000E+00  0.9600E+02
    -15.328  0.0000E+00  0.9600E+02
    -15.220  0.0000E+00  0.9600E+02
    -15.111  0.0000E+00  0.9600E+02
    -15.003  0.0000E+00  0.9600E+02
    -14.895  0.0000E+00  0.9600E+02
    -14.787  0.0000E+00  0.9600E+02
    -14.678  0.0000E+00  0.9600E+02
    -14.570  0.0000E+00  0.9600E+02
    -14.462  0.0000E+00  0.9600E+02
    -14.353  0.0000E+00  0.9600E+02
    -14.245  0.0000E+00  0.9600E+02
    -14.137  0.0000E+00  0.9600E+02
    -14.028  0.0000E+00  0.9600E+02
    -13.920  0.0000E+00  0.9600E+02
    -13.812  0.0000E+00  0.9600E+02
    -13.703  0.0000E+00  0.9600E+02
    -13.595  0.0000E+00  0.9600E+02
    -13.487  0.0000E+00  0.9600E+02
    -13.378  0.0000E+00  0.9600E+02
    -13.270  0.0000E+00  0.1120E+03
    -13.162  0.0000E+00  0.1120E+03
    -13.054  0.0000E+00  0.1120E+03
    -12.945  0.0000E+00  0.1120E+03
    -12.837  0.0000E+00  0.1120E+03
    -12.729  0.0000E+00  0.1120E+03
    -12.620  0.0000E+00  0.1120E+03
    -12.512  0.0000E+00  0.1120E+03
    -12.404  0.0000E+00  0.1120E+03
    -12.295  0.0000E+00  0.1125E+03
    -12.187  0.6839E+01  0.1155E+03
    -12.079  0.7523E+01  0.1209E+03
    -11.970  0.2732E+01  0.1264E+03
    -11.862  0.4106E-11  0.1291E+03
    -11.754  0.5471E+01  0.1366E+03
    -11.646  0.4920E+01  0.1417E+03
    -11.537  0.9576E+00  0.1443E+03
    -11.429  0.4098E+01  0.1547E+03
    -11.321  0.2736E+01  0.1600E+03
    -11.212  0.0000E+00  0.1600E+03
    -11.104  0.0000E+00  0.1600E+03
    -10.996  0.0000E+00  0.1600E+03
    -10.887  0.0000E+00  0.1600E+03
    -10.779  0.0000E+00  0.1600E+03
    -10.671  0.0000E+00  0.1600E+03
    -10.562  0.0000E+00  0.1600E+03
    -10.454  0.0000E+00  0.1600E+03
    -10.346  0.0000E+00  0.1600E+03
    -10.237  0.0000E+00  0.1600E+03
    -10.129  0.0000E+00  0.1600E+03
    -10.021  0.0000E+00  0.1600E+03
     -9.913  0.0000E+00  0.1600E+03
     -9.804  0.0000E+00  0.1600E+03
     -9.696  0.0000E+00  0.1600E+03
     -9.588  0.0000E+00  0.1600E+03
     -9.479  0.0000E+00  0.1600E+03
     -9.371  0.0000E+00  0.1600E+03
     -9.263  0.2052E+01  0.1627E+03
     -9.154  0.2894E+02  0.1817E+03
     -9.046  0.0000E+00  0.1920E+03
     -8.938  0.0000E+00  0.1920E+03
     -8.829  0.0000E+00  0.1920E+03
     -8.721  0.0000E+00  0.1920E+03
     -8.613  0.0000E+00  0.1920E+03
     -8.505  0.0000E+00  0.1920E+03
     -8.396  0.0000E+00  0.1920E+03
     -8.288  0.0000E+00  0.1920E+03
     -8.180  0.0000E+00  0.1920E+03
     -8.071  0.0000E+00  0.1920E+03
     -7.963  0.0000E+00  0.1921E+03
     -7.855  0.0000E+00  0.1925E+03
     -7.746  0.4103E+01  0.1931E+03
     -7.638  0.0000E+00  0.1934E+03
     -7.530  0.5470E+00  0.1944E+03
     -7.421  0.2052E+01  0.1954E+03
     -7.313  0.2736E+01  0.1970E+03
     -7.205  0.1368E+01  0.1990E+03
     -7.096  0.1575E+02  0.2047E+03
     -6.988  0.2728E+01  0.2172E+03
     -6.880  0.0000E+00  0.2194E+03
     -6.772  0.1367E+01  0.2207E+03
     -6.663  0.2736E+01  0.2219E+03
     -6.555  0.1368E+01  0.2226E+03
     -6.447  0.1368E+01  0.2235E+03
     -6.338  0.0000E+00  0.2235E+03
     -6.230  0.0000E+00  0.2239E+03
     -6.122  0.0000E+00  0.2239E+03
     -6.013  0.0000E+00  0.2240E+03
     -5.905  0.0000E+00  0.2240E+03
     -5.797  0.0000E+00  0.2240E+03
     -5.688  0.0000E+00  0.2240E+03
     -5.580  0.0000E+00  0.2240E+03
     -5.472  0.0000E+00  0.2240E+03
     -5.364  0.0000E+00  0.2240E+03
     -5.255  0.0000E+00  0.2240E+03
     -5.147  0.0000E+00  0.2240E+03
     -5.039  0.0000E+00  0.2240E+03
     -4.930  0.0000E+00  0.2240E+03
     -4.822  0.1001E+02  0.2285E+03
     -4.714  0.0000E+00  0.2560E+03
     -4.605  0.0000E+00  0.2560E+03
     -4.497  0.0000E+00  0.2560E+03
     -4.389  0.0000E+00  0.2560E+03
     -4.280  0.0000E+00  0.2560E+03
     -4.172  0.0000E+00  0.2560E+03
     -4.064  0.0000E+00  0.2560E+03
     -3.956  0.0000E+00  0.2560E+03
     -3.847  0.0000E+00  0.2560E+03
     -3.739  0.0000E+00  0.2560E+03
     -3.631  0.0000E+00  0.2560E+03
     -3.522  0.0000E+00  0.2560E+03
     -3.414  0.0000E+00  0.2560E+03
     -3.306  0.0000E+00  0.2560E+03
     -3.197  0.0000E+00  0.2560E+03
     -3.089  0.0000E+00  0.2560E+03
     -2.981  0.0000E+00  0.2560E+03
     -2.872  0.0000E+00  0.2560E+03
     -2.764  0.0000E+00  0.2570E+03
     -2.656  0.2974E+01  0.2605E+03
     -2.547  0.4103E+01  0.2631E+03
     -2.439  0.5473E+01  0.2650E+03
     -2.331  0.2732E+01  0.2671E+03
     -2.223  0.5421E+01  0.2707E+03
     -2.114  0.3646E+01  0.2745E+03
     -2.006  0.0000E+00  0.2778E+03
     -1.898  0.0000E+00  0.2796E+03
     -1.789  0.0000E+00  0.2800E+03
     -1.681  0.0000E+00  0.2802E+03
     -1.573  0.5420E+01  0.2833E+03
     -1.464  0.4456E+01  0.2868E+03
     -1.356  0.2967E+01  0.2955E+03
     -1.248  0.6836E+00  0.3017E+03
     -1.139  0.2736E+01  0.3060E+03
     -1.031  0.4774E+01  0.3103E+03
     -0.923  0.6754E+01  0.3156E+03
     -0.815  0.1467E+02  0.3225E+03
     -0.706  0.6839E+01  0.3308E+03
     -0.598  0.4087E+01  0.3358E+03
     -0.490  0.1316E+02  0.3447E+03
     -0.381  0.1497E+01  0.3521E+03
     -0.273  0.6839E+01  0.3604E+03
     -0.165  0.5980E+01  0.3695E+03
     -0.056  0.8205E+01  0.3790E+03
      0.052  0.9574E+01  0.3856E+03
      0.160  0.2736E+01  0.3894E+03
      0.269  0.0000E+00  0.3930E+03
      0.377  0.6028E+00  0.3947E+03
      0.485  0.0000E+00  0.3964E+03
      0.594  0.2205E-01  0.3973E+03
      0.702  0.1368E+01  0.3988E+03
      0.810  0.0000E+00  0.3993E+03
      0.918  0.0000E+00  0.3998E+03
      1.027  0.0000E+00  0.3999E+03
      1.135  0.0000E+00  0.3999E+03
      1.243  0.0000E+00  0.4000E+03
      1.352  0.0000E+00  0.4000E+03
      1.460  0.0000E+00  0.4000E+03
      1.568  0.0000E+00  0.4000E+03
      1.677  0.0000E+00  0.4000E+03
      1.785  0.0000E+00  0.4000E+03
      1.893  0.0000E+00  0.4000E+03
      2.002  0.0000E+00  0.4000E+03
      2.110  0.0000E+00  0.4000E+03
      2.218  0.0000E+00  0.4000E+03
      2.326  0.0000E+00  0.4000E+03
      2.435  0.0000E+00  0.4000E+03
      2.543  0.0000E+00  0.4000E+03
      2.651  0.0000E+00  0.4000E+03
      2.760  0.0000E+00  0.4000E+03
      2.868  0.0000E+00  0.4000E+03
      2.976  0.0000E+00  0.4000E+03
      3.085  0.0000E+00  0.4000E+03
      3.193  0.0000E+00  0.4000E+03
      3.301  0.0000E+00  0.4001E+03
      3.410  0.0000E+00  0.4007E+03
      3.518  0.6307E-11  0.4013E+03
      3.626  0.0000E+00  0.4029E+03
      3.735  0.2696E+01  0.4041E+03
      3.843  0.0000E+00  0.4059E+03
      3.951  0.0000E+00  0.4067E+03
      4.059  0.0000E+00  0.4077E+03
      4.168  0.6839E+00  0.4087E+03
      4.276  0.0000E+00  0.4093E+03
      4.384  0.1368E+01  0.4108E+03
      4.493  0.8206E+01  0.4127E+03
      4.601  0.0000E+00  0.4150E+03
      4.709  0.0000E+00  0.4166E+03
      4.818  0.1094E+02  0.4196E+03
      4.926  0.8947E+00  0.4226E+03
      5.034  0.2736E+01  0.4236E+03
      5.143  0.0000E+00  0.4239E+03
      5.251  0.0000E+00  0.4240E+03
      5.359  0.0000E+00  0.4240E+03
      5.467  0.0000E+00  0.4240E+03
      5.576  0.0000E+00  0.4241E+03
      5.684  0.0000E+00  0.4247E+03
      5.792  0.2736E+01  0.4266E+03
      5.901  0.3335E+01  0.4287E+03
      6.009  0.4103E+01  0.4327E+03
      6.117  0.1197E-05  0.4366E+03
      6.226  0.4320E+00  0.4389E+03
      6.334  0.4103E+01  0.4419E+03
      6.442  0.8203E+01  0.4447E+03
      6.551  0.6752E+01  0.4478E+03
      6.659  0.5759E+01  0.4513E+03
      6.767  0.6734E+01  0.4567E+03
      6.875  0.2864E+01  0.4611E+03
      6.984  0.4428E+01  0.4653E+03
      7.092  0.1368E+01  0.4714E+03
      7.200  0.4108E+01  0.4751E+03
      7.309  0.9708E+00  0.4788E+03
      7.417  0.2224E+01  0.4817E+03
      7.525  0.1270E+01  0.4865E+03
      7.634  0.2552E+01  0.4899E+03
      7.742  0.2736E+01  0.4934E+03
      7.850  0.1403E+00  0.4971E+03
      7.959  0.1360E+01  0.5010E+03
      8.067  0.2327E+01  0.5033E+03
      8.175  0.4900E+00  0.5058E+03
      8.284  0.0000E+00  0.5083E+03
      8.392  0.1368E+01  0.5106E+03
      8.500  0.1366E+01  0.5117E+03
      8.608  0.0000E+00  0.5119E+03
      8.717  0.0000E+00  0.5120E+03
      8.825  0.0000E+00  0.5120E+03
      8.933  0.0000E+00  0.5120E+03
      9.042  0.0000E+00  0.5120E+03
      9.150  0.0000E+00  0.5120E+03
      9.258  0.0000E+00  0.5120E+03
      9.367  0.0000E+00  0.5120E+03
      9.475  0.0000E+00  0.5120E+03
      9.583  0.0000E+00  0.5120E+03
      9.692  0.0000E+00  0.5120E+03
      9.800  0.0000E+00  0.5120E+03
      9.908  0.0000E+00  0.5120E+03
     10.016  0.0000E+00  0.5120E+03
     10.125  0.0000E+00  0.5120E+03
