       N       E                     dE             d eps       ncg     rms          ort
DAV:   1     0.383117307130E+05    0.38312E+05   -0.10908E+06  3584   0.486E+03
DAV:   2     0.946112016506E+04   -0.28851E+05   -0.28157E+05  3584   0.165E+03
DAV:   3     0.206690765889E+04   -0.73942E+04   -0.72374E+04  3584   0.523E+02
DAV:   4     0.486401183020E+03   -0.15805E+04   -0.15054E+04  3584   0.218E+02
DAV:   5     0.276774330209E+03   -0.20963E+03   -0.20578E+03  3584   0.839E+01
SDA:   6    -0.445582262513E+03   -0.72236E+03   -0.20578E+03  3584   0.121E+03 0.000E+00
CGA:   7    -0.466526037167E+03   -0.20944E+02   -0.21005E+02  3584   0.434E+02 0.768E+00
CGA:   8    -0.474969284085E+03   -0.84432E+01   -0.84435E+01  3584   0.915E+01-0.218E-01
CGA:   9    -0.477989287097E+03   -0.30200E+01   -0.30204E+01  3584   0.298E+01-0.145E-01
CGA:  10    -0.478924081539E+03   -0.93479E+00   -0.93579E+00  3584   0.110E+01-0.946E-02
CGA:  11    -0.479165102274E+03   -0.24102E+00   -0.24105E+00  3584   0.443E+00-0.173E-02
CGA:  12    -0.479288484132E+03   -0.12338E+00   -0.12351E+00  3584   0.111E+00-0.171E-02
CGA:  13    -0.479326452016E+03   -0.37968E-01   -0.38033E-01  3584   0.338E-01-0.458E-03
CGA:  14    -0.479336953797E+03   -0.10502E-01   -0.10502E-01  3584   0.144E-01 0.969E-05
CGA:  15    -0.479340086295E+03   -0.31325E-02   -0.31305E-02  3584   0.613E-02-0.249E-03
CGA:  16    -0.479341750483E+03   -0.16642E-02   -0.16626E-02  3584   0.186E-02 0.328E-04
CGA:  17    -0.479342440555E+03   -0.69007E-03   -0.69742E-03  3584   0.709E-03-0.506E-04
CGA:  18    -0.479342666527E+03   -0.22597E-03   -0.22449E-03  3584   0.267E-03 0.166E-04
CGA:  19    -0.479342750413E+03   -0.83886E-04   -0.84827E-04  3584   0.136E-03-0.132E-04
CGA:  20    -0.479342775987E+03   -0.25575E-04   -0.26223E-04  3584   0.473E-04 0.159E-04
CGA:  21    -0.479342794184E+03   -0.18197E-04   -0.18663E-04  3584   0.222E-04-0.416E-05
CGA:  22    -0.479342801770E+03   -0.75857E-05   -0.82340E-05  3584   0.133E-04-0.406E-05
CGA:  23    -0.479342803204E+03   -0.14344E-05   -0.17090E-05  3584   0.505E-05 0.281E-05
CGA:  24    -0.479342804333E+03   -0.11285E-05   -0.11735E-05  3584   0.218E-05 0.779E-06
CGA:  25    -0.479342801711E+03    0.26215E-05   -0.22618E-05  3584   0.245E-04-0.751E-05
CGA:  26    -0.479342804511E+03   -0.28002E-05   -0.34375E-05  3584   0.341E-05 0.458E-05
CGA:  27    -0.479342805649E+03   -0.11371E-05   -0.11372E-05  3584   0.999E-06-0.163E-07
CGA:  28    -0.479342806209E+03   -0.56066E-06    0.39553E-05  3584   0.438E-06-0.249E-06
CGA:  29    -0.479342806197E+03    0.12191E-07   -0.28723E-07  3584   0.279E-06 0.220E-06
CGA:  30    -0.479342806169E+03    0.27962E-07   -0.15170E-07  3584   0.169E-06 0.207E-06
CGA:  31    -0.479342806150E+03    0.18645E-07   -0.85866E-08  3584   0.116E-06 0.134E-06
CGA:  32    -0.479342806138E+03    0.12169E-07   -0.59941E-08  3584   0.844E-07 0.951E-07
CGA:  33    -0.479342806131E+03    0.74433E-08   -0.48297E-08  3584   0.628E-07 0.701E-07
   1 F= -.47934281E+03 E0= -.47934281E+03  d E =0.000000E+00
