   8   8   1   0
  0.3631583E+02  0.6623111E-09  0.6623111E-09  0.6623111E-09  0.5000000E-15
  1.000000000000000E-004
  CAR 
 Name                                    
     11.23487123    -10.01178815  301      1.83322446      1.00000000
    -10.012  0.0000E+00  0.0000E+00
     -9.941  0.0000E+00  0.0000E+00
     -9.870  0.0000E+00  0.0000E+00
     -9.799  0.0000E+00  0.0000E+00
     -9.728  0.0000E+00  0.0000E+00
     -9.658  0.0000E+00  0.0000E+00
     -9.587  0.0000E+00  0.0000E+00
     -9.516  0.0000E+00  0.0000E+00
     -9.445  0.0000E+00  0.0000E+00
     -9.374  0.0000E+00  0.0000E+00
     -9.304  0.0000E+00  0.0000E+00
     -9.233  0.0000E+00  0.0000E+00
     -9.162  0.0000E+00  0.0000E+00
     -9.091  0.4072E-12  0.2884E-13
     -9.020  0.4412E-02  0.3125E-03
     -8.949  0.2648E-01  0.2188E-02
     -8.879  0.6542E-01  0.6821E-02
     -8.808  0.4877E-01  0.1027E-01
     -8.737  0.2115E+00  0.2531E-01
     -8.666  0.2336E+00  0.4186E-01
     -8.595  0.5339E+00  0.7967E-01
     -8.525  0.0000E+00  0.8000E-01
     -8.454  0.0000E+00  0.8000E-01
     -8.383  0.0000E+00  0.8000E-01
     -8.312  0.0000E+00  0.8000E-01
     -8.241  0.0000E+00  0.8000E-01
     -8.170  0.0000E+00  0.8000E-01
     -8.100  0.0000E+00  0.8000E-01
     -8.029  0.0000E+00  0.8000E-01
     -7.958  0.0000E+00  0.8000E-01
     -7.887  0.0000E+00  0.8000E-01
     -7.816  0.0000E+00  0.8000E-01
     -7.745  0.0000E+00  0.8000E-01
     -7.675  0.0000E+00  0.8000E-01
     -7.604  0.0000E+00  0.8000E-01
     -7.533  0.0000E+00  0.8000E-01
     -7.462  0.0000E+00  0.8000E-01
     -7.391  0.0000E+00  0.8000E-01
     -7.321  0.0000E+00  0.8000E-01
     -7.250  0.0000E+00  0.8000E-01
     -7.179  0.0000E+00  0.8000E-01
     -7.108  0.0000E+00  0.8000E-01
     -7.037  0.0000E+00  0.8000E-01
     -6.966  0.0000E+00  0.8000E-01
     -6.896  0.0000E+00  0.8000E-01
     -6.825  0.0000E+00  0.8000E-01
     -6.754  0.0000E+00  0.8000E-01
     -6.683  0.0000E+00  0.8000E-01
     -6.612  0.0000E+00  0.8000E-01
     -6.542  0.0000E+00  0.8000E-01
     -6.471  0.0000E+00  0.8000E-01
     -6.400  0.0000E+00  0.8000E-01
     -6.329  0.5608E-04  0.8000E-01
     -6.258  0.4775E+00  0.1138E+00
     -6.187  0.1819E+01  0.2427E+00
     -6.117  0.6550E+00  0.2897E+00
     -6.046  0.1690E+01  0.4103E+00
     -5.975  0.1062E+00  0.4178E+00
     -5.904  0.1056E+00  0.4253E+00
     -5.833  0.6628E-01  0.4300E+00
     -5.762  0.2384E+00  0.4469E+00
     -5.692  0.2197E+00  0.4628E+00
     -5.621  0.2197E+00  0.4783E+00
     -5.550  0.2318E-01  0.4800E+00
     -5.479  0.0000E+00  0.4800E+00
     -5.408  0.0000E+00  0.4800E+00
     -5.338  0.0000E+00  0.4800E+00
     -5.267  0.0000E+00  0.4800E+00
     -5.196  0.0000E+00  0.4800E+00
     -5.125  0.0000E+00  0.4800E+00
     -5.054  0.0000E+00  0.4800E+00
     -4.983  0.0000E+00  0.4800E+00
     -4.913  0.0000E+00  0.4800E+00
     -4.842  0.0000E+00  0.4800E+00
     -4.771  0.0000E+00  0.4800E+00
     -4.700  0.0000E+00  0.4800E+00
     -4.629  0.0000E+00  0.4800E+00
     -4.558  0.0000E+00  0.4800E+00
     -4.488  0.0000E+00  0.4800E+00
     -4.417  0.0000E+00  0.4800E+00
     -4.346  0.0000E+00  0.4800E+00
     -4.275  0.0000E+00  0.4800E+00
     -4.204  0.0000E+00  0.4800E+00
     -4.134  0.0000E+00  0.4800E+00
     -4.063  0.0000E+00  0.4800E+00
     -3.992  0.0000E+00  0.4800E+00
     -3.921  0.0000E+00  0.4800E+00
     -3.850  0.0000E+00  0.4800E+00
     -3.779  0.0000E+00  0.4800E+00
     -3.709  0.0000E+00  0.4800E+00
     -3.638  0.0000E+00  0.4800E+00
     -3.567  0.0000E+00  0.4800E+00
     -3.496  0.0000E+00  0.4800E+00
     -3.425  0.0000E+00  0.4800E+00
     -3.355  0.0000E+00  0.4800E+00
     -3.284  0.0000E+00  0.4800E+00
     -3.213  0.0000E+00  0.4800E+00
     -3.142  0.0000E+00  0.4800E+00
     -3.071  0.0000E+00  0.4800E+00
     -3.000  0.0000E+00  0.4800E+00
     -2.930  0.0000E+00  0.4800E+00
     -2.859  0.0000E+00  0.4800E+00
     -2.788  0.0000E+00  0.4800E+00
     -2.717  0.0000E+00  0.4800E+00
     -2.646  0.0000E+00  0.4800E+00
     -2.575  0.0000E+00  0.4800E+00
     -2.505  0.0000E+00  0.4800E+00
     -2.434  0.0000E+00  0.4800E+00
     -2.363  0.0000E+00  0.4800E+00
     -2.292  0.8766E-02  0.4806E+00
     -2.221  0.1920E-01  0.4820E+00
     -2.151  0.5827E-01  0.4861E+00
     -2.080  0.1828E+00  0.4991E+00
     -2.009  0.2669E+00  0.5180E+00
     -1.938  0.4684E-01  0.5216E+00
     -1.867  0.9100E-01  0.5280E+00
     -1.796  0.3315E-01  0.5304E+00
     -1.726  0.8216E-02  0.5309E+00
     -1.655  0.5295E-01  0.5347E+00
     -1.584  0.2929E-05  0.5347E+00
     -1.513  0.1059E+00  0.5422E+00
     -1.442  0.0000E+00  0.5422E+00
     -1.371  0.0000E+00  0.5422E+00
     -1.301  0.0000E+00  0.5422E+00
     -1.230  0.0000E+00  0.5422E+00
     -1.159  0.1643E-03  0.5422E+00
     -1.088  0.1057E+00  0.5497E+00
     -1.017  0.0000E+00  0.5497E+00
     -0.947  0.0000E+00  0.5497E+00
     -0.876  0.0000E+00  0.5497E+00
     -0.805  0.1290E-03  0.5497E+00
     -0.734  0.6165E-01  0.5541E+00
     -0.663  0.0000E+00  0.5541E+00
     -0.592  0.0000E+00  0.5541E+00
     -0.522  0.1771E-04  0.5541E+00
     -0.451  0.8560E-01  0.5601E+00
     -0.380  0.7324E-01  0.5653E+00
     -0.309  0.3412E-02  0.5656E+00
     -0.238  0.2306E-01  0.5672E+00
     -0.168  0.5329E-01  0.5710E+00
     -0.097  0.9962E-01  0.5783E+00
     -0.026  0.2685E+00  0.5973E+00
      0.045  0.1311E+00  0.6066E+00
      0.116  0.4783E-02  0.6069E+00
      0.187  0.2169E-01  0.6084E+00
      0.257  0.1487E-14  0.6084E+00
      0.328  0.7136E-01  0.6135E+00
      0.399  0.9342E-01  0.6201E+00
      0.470  0.2823E+00  0.6401E+00
      0.541  0.8975E-01  0.6471E+00
      0.612  0.1163E+00  0.6553E+00
      0.682  0.1059E+00  0.6628E+00
      0.753  0.0000E+00  0.6628E+00
      0.824  0.7222E-01  0.6679E+00
      0.895  0.8662E-01  0.6741E+00
      0.966  0.1051E+00  0.6815E+00
      1.036  0.1327E-02  0.6817E+00
      1.107  0.3481E+00  0.7063E+00
      1.178  0.0000E+00  0.7066E+00
      1.249  0.0000E+00  0.7066E+00
      1.320  0.0000E+00  0.7066E+00
      1.391  0.1153E-01  0.7074E+00
      1.461  0.1107E+00  0.7152E+00
      1.532  0.0000E+00  0.7153E+00
      1.603  0.1464E-01  0.7163E+00
      1.674  0.3831E-01  0.7191E+00
      1.745  0.5908E-06  0.7191E+00
      1.816  0.1324E-01  0.7200E+00
      1.886  0.0000E+00  0.7200E+00
      1.957  0.0000E+00  0.7200E+00
      2.028  0.0000E+00  0.7200E+00
      2.099  0.0000E+00  0.7200E+00
      2.170  0.0000E+00  0.7200E+00
      2.240  0.0000E+00  0.7200E+00
      2.311  0.3177E-08  0.7200E+00
      2.382  0.4412E-02  0.7203E+00
      2.453  0.0000E+00  0.7203E+00
      2.524  0.0000E+00  0.7203E+00
      2.595  0.0000E+00  0.7203E+00
      2.665  0.0000E+00  0.7203E+00
      2.736  0.0000E+00  0.7203E+00
      2.807  0.0000E+00  0.7203E+00
      2.878  0.0000E+00  0.7203E+00
      2.949  0.0000E+00  0.7203E+00
      3.019  0.0000E+00  0.7203E+00
      3.090  0.0000E+00  0.7203E+00
      3.161  0.0000E+00  0.7203E+00
      3.232  0.0000E+00  0.7203E+00
      3.303  0.0000E+00  0.7203E+00
      3.374  0.0000E+00  0.7203E+00
      3.444  0.0000E+00  0.7203E+00
      3.515  0.2616E-02  0.7205E+00
      3.586  0.1504E-01  0.7216E+00
      3.657  0.6025E-01  0.7258E+00
      3.728  0.0000E+00  0.7259E+00
      3.799  0.0000E+00  0.7259E+00
      3.869  0.2119E-01  0.7274E+00
      3.940  0.3176E-01  0.7297E+00
      4.011  0.0000E+00  0.7297E+00
      4.082  0.0000E+00  0.7297E+00
      4.153  0.5447E-03  0.7297E+00
      4.223  0.1561E+00  0.7408E+00
      4.294  0.5515E-01  0.7447E+00
      4.365  0.0000E+00  0.7447E+00
      4.436  0.3585E-02  0.7449E+00
      4.507  0.3673E-01  0.7475E+00
      4.578  0.1736E-01  0.7488E+00
      4.648  0.2174E-01  0.7503E+00
      4.719  0.2637E+00  0.7690E+00
      4.790  0.5285E-01  0.7728E+00
      4.861  0.9791E-01  0.7797E+00
      4.932  0.3445E-01  0.7822E+00
      5.003  0.9025E-02  0.7828E+00
      5.073  0.1498E+00  0.7934E+00
      5.144  0.2019E-03  0.7935E+00
      5.215  0.7922E-01  0.7991E+00
      5.286  0.1049E+00  0.8065E+00
      5.357  0.5648E-04  0.8066E+00
      5.427  0.1058E+00  0.8141E+00
      5.498  0.0000E+00  0.8141E+00
      5.569  0.0000E+00  0.8141E+00
      5.640  0.0000E+00  0.8141E+00
      5.711  0.0000E+00  0.8141E+00
      5.782  0.1416E-02  0.8142E+00
      5.852  0.1557E+00  0.8252E+00
      5.923  0.0000E+00  0.8253E+00
      5.994  0.0000E+00  0.8253E+00
      6.065  0.0000E+00  0.8253E+00
      6.136  0.0000E+00  0.8253E+00
      6.206  0.9850E-01  0.8323E+00
      6.277  0.1133E+00  0.8403E+00
      6.348  0.0000E+00  0.8403E+00
      6.419  0.1108E+00  0.8482E+00
      6.490  0.1323E+00  0.8581E+00
      6.561  0.0000E+00  0.8581E+00
      6.631  0.0000E+00  0.8581E+00
      6.702  0.4442E-02  0.8584E+00
      6.773  0.2330E+00  0.8749E+00
      6.844  0.2728E-01  0.8769E+00
      6.915  0.1550E-01  0.8780E+00
      6.986  0.1895E+00  0.8914E+00
      7.056  0.4203E-01  0.8944E+00
      7.127  0.4535E-02  0.8947E+00
      7.198  0.1543E+00  0.9056E+00
      7.269  0.1331E+00  0.9150E+00
      7.340  0.1566E+00  0.9262E+00
      7.410  0.0000E+00  0.9263E+00
      7.481  0.1181E-08  0.9263E+00
      7.552  0.1059E+00  0.9337E+00
      7.623  0.5984E-01  0.9380E+00
      7.694  0.4606E-01  0.9413E+00
      7.765  0.6354E-04  0.9413E+00
      7.835  0.1058E+00  0.9487E+00
      7.906  0.5917E-01  0.9529E+00
      7.977  0.1142E-01  0.9537E+00
      8.048  0.1467E-11  0.9538E+00
      8.119  0.2647E-01  0.9556E+00
      8.190  0.0000E+00  0.9556E+00
      8.260  0.0000E+00  0.9556E+00
      8.331  0.0000E+00  0.9556E+00
      8.402  0.0000E+00  0.9556E+00
      8.473  0.0000E+00  0.9556E+00
      8.544  0.0000E+00  0.9556E+00
      8.614  0.0000E+00  0.9556E+00
      8.685  0.0000E+00  0.9556E+00
      8.756  0.0000E+00  0.9556E+00
      8.827  0.0000E+00  0.9556E+00
      8.898  0.0000E+00  0.9556E+00
      8.969  0.0000E+00  0.9556E+00
      9.039  0.1318E-01  0.9566E+00
      9.110  0.3976E-01  0.9594E+00
      9.181  0.4412E-02  0.9597E+00
      9.252  0.0000E+00  0.9597E+00
      9.323  0.0000E+00  0.9597E+00
      9.393  0.0000E+00  0.9597E+00
      9.464  0.0000E+00  0.9597E+00
      9.535  0.0000E+00  0.9597E+00
      9.606  0.0000E+00  0.9597E+00
      9.677  0.0000E+00  0.9597E+00
      9.748  0.0000E+00  0.9597E+00
      9.818  0.0000E+00  0.9597E+00
      9.889  0.0000E+00  0.9597E+00
      9.960  0.0000E+00  0.9597E+00
     10.031  0.0000E+00  0.9597E+00
     10.102  0.0000E+00  0.9597E+00
     10.173  0.0000E+00  0.9597E+00
     10.243  0.5966E-06  0.9597E+00
     10.314  0.4412E-02  0.9600E+00
     10.385  0.0000E+00  0.9600E+00
     10.456  0.0000E+00  0.9600E+00
     10.527  0.0000E+00  0.9600E+00
     10.597  0.0000E+00  0.9600E+00
     10.668  0.0000E+00  0.9600E+00
     10.739  0.0000E+00  0.9600E+00
     10.810  0.0000E+00  0.9600E+00
     10.881  0.0000E+00  0.9600E+00
     10.952  0.0000E+00  0.9600E+00
     11.022  0.0000E+00  0.9600E+00
     11.093  0.0000E+00  0.9600E+00
     11.164  0.0000E+00  0.9600E+00
     11.235  0.0000E+00  0.9600E+00
     11.23487123    -10.01178815  301      1.83322446      1.00000000
    -10.012  0.0000E+00  0.0000E+00  0.0000E+00
     -9.941  0.0000E+00  0.0000E+00  0.0000E+00
     -9.870  0.0000E+00  0.0000E+00  0.0000E+00
     -9.799  0.0000E+00  0.0000E+00  0.0000E+00
     -9.728  0.0000E+00  0.0000E+00  0.0000E+00
     -9.658  0.0000E+00  0.0000E+00  0.0000E+00
     -9.587  0.0000E+00  0.0000E+00  0.0000E+00
     -9.516  0.0000E+00  0.0000E+00  0.0000E+00
     -9.445  0.0000E+00  0.0000E+00  0.0000E+00
     -9.374  0.0000E+00  0.0000E+00  0.0000E+00
     -9.304  0.0000E+00  0.0000E+00  0.0000E+00
     -9.233  0.0000E+00  0.0000E+00  0.0000E+00
     -9.162  0.0000E+00  0.0000E+00  0.0000E+00
     -9.091  0.5451E-12  0.1996E-33  0.1030E-30
     -9.020  0.5907E-02  0.5403E-11  0.4192E-10
     -8.949  0.3095E-01  0.1088E-02  0.8437E-02
     -8.879  0.6468E-01  0.5358E-02  0.4547E-01
     -8.808  0.3865E-01  0.6108E-02  0.5515E-01
     -8.737  0.1219E+00  0.3587E-01  0.3524E+00
     -8.666  0.7399E-01  0.5124E-01  0.5547E+00
     -8.595  0.6517E-01  0.1379E+00  0.1554E+01
     -8.525  0.0000E+00  0.0000E+00  0.0000E+00
     -8.454  0.0000E+00  0.0000E+00  0.0000E+00
     -8.383  0.0000E+00  0.0000E+00  0.0000E+00
     -8.312  0.0000E+00  0.0000E+00  0.0000E+00
     -8.241  0.0000E+00  0.0000E+00  0.0000E+00
     -8.170  0.0000E+00  0.0000E+00  0.0000E+00
     -8.100  0.0000E+00  0.0000E+00  0.0000E+00
     -8.029  0.0000E+00  0.0000E+00  0.0000E+00
     -7.958  0.0000E+00  0.0000E+00  0.0000E+00
     -7.887  0.0000E+00  0.0000E+00  0.0000E+00
     -7.816  0.0000E+00  0.0000E+00  0.0000E+00
     -7.745  0.0000E+00  0.0000E+00  0.0000E+00
     -7.675  0.0000E+00  0.0000E+00  0.0000E+00
     -7.604  0.0000E+00  0.0000E+00  0.0000E+00
     -7.533  0.0000E+00  0.0000E+00  0.0000E+00
     -7.462  0.0000E+00  0.0000E+00  0.0000E+00
     -7.391  0.0000E+00  0.0000E+00  0.0000E+00
     -7.321  0.0000E+00  0.0000E+00  0.0000E+00
     -7.250  0.0000E+00  0.0000E+00  0.0000E+00
     -7.179  0.0000E+00  0.0000E+00  0.0000E+00
     -7.108  0.0000E+00  0.0000E+00  0.0000E+00
     -7.037  0.0000E+00  0.0000E+00  0.0000E+00
     -6.966  0.0000E+00  0.0000E+00  0.0000E+00
     -6.896  0.0000E+00  0.0000E+00  0.0000E+00
     -6.825  0.0000E+00  0.0000E+00  0.0000E+00
     -6.754  0.0000E+00  0.0000E+00  0.0000E+00
     -6.683  0.0000E+00  0.0000E+00  0.0000E+00
     -6.612  0.0000E+00  0.0000E+00  0.0000E+00
     -6.542  0.0000E+00  0.0000E+00  0.0000E+00
     -6.471  0.0000E+00  0.0000E+00  0.0000E+00
     -6.400  0.0000E+00  0.0000E+00  0.0000E+00
     -6.329  0.2656E-15  0.3916E-06  0.1277E-02
     -6.258  0.2265E-02  0.3713E-02  0.1094E+02
     -6.187  0.9535E-02  0.1567E-01  0.4204E+02
     -6.117  0.1637E-01  0.6530E-03  0.1524E+02
     -6.046  0.5296E-02  0.4037E-03  0.3999E+02
     -5.975  0.2025E-01  0.1053E-02  0.2317E+01
     -5.904  0.2163E-01  0.1716E-02  0.2272E+01
     -5.833  0.1274E-01  0.1970E-02  0.1402E+01
     -5.762  0.3590E-01  0.9812E-02  0.5022E+01
     -5.692  0.2402E-01  0.1105E-01  0.4613E+01
     -5.621  0.9363E-02  0.1576E-01  0.4553E+01
     -5.550  0.2312E-26  0.1842E-02  0.4796E+00
     -5.479  0.0000E+00  0.0000E+00  0.0000E+00
     -5.408  0.0000E+00  0.0000E+00  0.0000E+00
     -5.338  0.0000E+00  0.0000E+00  0.0000E+00
     -5.267  0.0000E+00  0.0000E+00  0.0000E+00
     -5.196  0.0000E+00  0.0000E+00  0.0000E+00
     -5.125  0.0000E+00  0.0000E+00  0.0000E+00
     -5.054  0.0000E+00  0.0000E+00  0.0000E+00
     -4.983  0.0000E+00  0.0000E+00  0.0000E+00
     -4.913  0.0000E+00  0.0000E+00  0.0000E+00
     -4.842  0.0000E+00  0.0000E+00  0.0000E+00
     -4.771  0.0000E+00  0.0000E+00  0.0000E+00
     -4.700  0.0000E+00  0.0000E+00  0.0000E+00
     -4.629  0.0000E+00  0.0000E+00  0.0000E+00
     -4.558  0.0000E+00  0.0000E+00  0.0000E+00
     -4.488  0.0000E+00  0.0000E+00  0.0000E+00
     -4.417  0.0000E+00  0.0000E+00  0.0000E+00
     -4.346  0.0000E+00  0.0000E+00  0.0000E+00
     -4.275  0.0000E+00  0.0000E+00  0.0000E+00
     -4.204  0.0000E+00  0.0000E+00  0.0000E+00
     -4.134  0.0000E+00  0.0000E+00  0.0000E+00
     -4.063  0.0000E+00  0.0000E+00  0.0000E+00
     -3.992  0.0000E+00  0.0000E+00  0.0000E+00
     -3.921  0.0000E+00  0.0000E+00  0.0000E+00
     -3.850  0.0000E+00  0.0000E+00  0.0000E+00
     -3.779  0.0000E+00  0.0000E+00  0.0000E+00
     -3.709  0.0000E+00  0.0000E+00  0.0000E+00
     -3.638  0.0000E+00  0.0000E+00  0.0000E+00
     -3.567  0.0000E+00  0.0000E+00  0.0000E+00
     -3.496  0.0000E+00  0.0000E+00  0.0000E+00
     -3.425  0.0000E+00  0.0000E+00  0.0000E+00
     -3.355  0.0000E+00  0.0000E+00  0.0000E+00
     -3.284  0.0000E+00  0.0000E+00  0.0000E+00
     -3.213  0.0000E+00  0.0000E+00  0.0000E+00
     -3.142  0.0000E+00  0.0000E+00  0.0000E+00
     -3.071  0.0000E+00  0.0000E+00  0.0000E+00
     -3.000  0.0000E+00  0.0000E+00  0.0000E+00
     -2.930  0.0000E+00  0.0000E+00  0.0000E+00
     -2.859  0.0000E+00  0.0000E+00  0.0000E+00
     -2.788  0.0000E+00  0.0000E+00  0.0000E+00
     -2.717  0.0000E+00  0.0000E+00  0.0000E+00
     -2.646  0.0000E+00  0.0000E+00  0.0000E+00
     -2.575  0.0000E+00  0.0000E+00  0.0000E+00
     -2.505  0.0000E+00  0.0000E+00  0.0000E+00
     -2.434  0.0000E+00  0.0000E+00  0.0000E+00
     -2.363  0.0000E+00  0.0000E+00  0.0000E+00
     -2.292  0.3670E-01  0.4975E-02  0.2709E-04
     -2.221  0.9898E-01  0.5042E-02  0.5749E-02
     -2.151  0.3573E+00  0.9613E-03  0.2063E-01
     -2.080  0.1023E+01  0.3910E-01  0.2360E-01
     -2.009  0.1370E+01  0.8401E-01  0.7301E-01
     -1.938  0.2474E+00  0.1196E-01  0.1734E-01
     -1.867  0.5059E+00  0.1151E-01  0.6148E-01
     -1.796  0.1828E+00  0.3305E-02  0.2766E-01
     -1.726  0.4500E-01  0.6401E-03  0.7918E-02
     -1.655  0.2586E+00  0.1810E-01  0.3184E-01
     -1.584  0.1202E-04  0.1480E-05  0.2185E-05
     -1.513  0.4347E+00  0.5353E-01  0.7901E-01
     -1.442  0.0000E+00  0.0000E+00  0.0000E+00
     -1.371  0.0000E+00  0.0000E+00  0.0000E+00
     -1.301  0.0000E+00  0.0000E+00  0.0000E+00
     -1.230  0.0000E+00  0.0000E+00  0.0000E+00
     -1.159  0.7271E-03  0.5737E-04  0.1731E-03
     -1.088  0.4679E+00  0.3692E-01  0.1114E+00
     -1.017  0.0000E+00  0.0000E+00  0.0000E+00
     -0.947  0.0000E+00  0.0000E+00  0.0000E+00
     -0.876  0.0000E+00  0.0000E+00  0.0000E+00
     -0.805  0.4500E-03  0.7582E-04  0.1352E-03
     -0.734  0.2440E+00  0.2611E-01  0.7158E-01
     -0.663  0.0000E+00  0.0000E+00  0.0000E+00
     -0.592  0.0000E+00  0.0000E+00  0.0000E+00
     -0.522  0.6539E-08  0.3023E-04  0.8826E-05
     -0.451  0.5017E-02  0.1433E+00  0.4606E-01
     -0.380  0.1120E-01  0.1188E+00  0.4413E-01
     -0.309  0.5039E-20  0.5120E-02  0.3102E-02
     -0.238  0.3406E-19  0.3460E-01  0.2096E-01
     -0.168  0.1778E+00  0.3026E-01  0.6040E-01
     -0.097  0.2258E-01  0.1643E+00  0.5659E-01
     -0.026  0.1259E+00  0.4118E+00  0.1799E+00
      0.045  0.1944E-01  0.2225E+00  0.6853E-01
      0.116  0.1066E-22  0.8652E-02  0.1829E-02
      0.187  0.4833E-22  0.3923E-01  0.8295E-02
      0.257  0.9861E-33  0.2577E-14  0.8169E-15
      0.328  0.6955E-03  0.1227E+00  0.4090E-01
      0.399  0.3235E-02  0.1573E+00  0.5953E-01
      0.470  0.5128E-01  0.4435E+00  0.2145E+00
      0.541  0.1009E+00  0.1076E+00  0.8492E-01
      0.612  0.4156E-01  0.1758E+00  0.8903E-01
      0.682  0.1768E-02  0.1671E+00  0.8540E-01
      0.753  0.0000E+00  0.0000E+00  0.0000E+00
      0.824  0.1832E-01  0.9958E-01  0.7174E-01
      0.895  0.4485E-01  0.1108E+00  0.8942E-01
      0.966  0.9653E-18  0.1494E+00  0.1050E+00
      1.036  0.1493E-03  0.1737E-02  0.1455E-02
      1.107  0.1896E-01  0.4619E+00  0.3772E+00
      1.178  0.0000E+00  0.0000E+00  0.0000E+00
      1.249  0.0000E+00  0.0000E+00  0.0000E+00
      1.320  0.0000E+00  0.0000E+00  0.0000E+00
      1.391  0.1751E-27  0.1231E-01  0.1537E-01
      1.461  0.2183E-21  0.1139E+00  0.1524E+00
      1.532  0.0000E+00  0.0000E+00  0.0000E+00
      1.603  0.1178E-25  0.1245E-01  0.2194E-01
      1.674  0.3083E-25  0.3257E-01  0.5739E-01
      1.745  0.3592E-31  0.3591E-06  0.9963E-06
      1.816  0.8049E-27  0.8046E-02  0.2232E-01
      1.886  0.0000E+00  0.0000E+00  0.0000E+00
      1.957  0.0000E+00  0.0000E+00  0.0000E+00
      2.028  0.0000E+00  0.0000E+00  0.0000E+00
      2.099  0.0000E+00  0.0000E+00  0.0000E+00
      2.170  0.0000E+00  0.0000E+00  0.0000E+00
      2.240  0.0000E+00  0.0000E+00  0.0000E+00
      2.311  0.2598E-07  0.1110E-31  0.3736E-32
      2.382  0.3608E-01  0.1542E-25  0.5189E-26
      2.453  0.0000E+00  0.0000E+00  0.0000E+00
      2.524  0.0000E+00  0.0000E+00  0.0000E+00
      2.595  0.0000E+00  0.0000E+00  0.0000E+00
      2.665  0.0000E+00  0.0000E+00  0.0000E+00
      2.736  0.0000E+00  0.0000E+00  0.0000E+00
      2.807  0.0000E+00  0.0000E+00  0.0000E+00
      2.878  0.0000E+00  0.0000E+00  0.0000E+00
      2.949  0.0000E+00  0.0000E+00  0.0000E+00
      3.019  0.0000E+00  0.0000E+00  0.0000E+00
      3.090  0.0000E+00  0.0000E+00  0.0000E+00
      3.161  0.0000E+00  0.0000E+00  0.0000E+00
      3.232  0.0000E+00  0.0000E+00  0.0000E+00
      3.303  0.0000E+00  0.0000E+00  0.0000E+00
      3.374  0.0000E+00  0.0000E+00  0.0000E+00
      3.444  0.0000E+00  0.0000E+00  0.0000E+00
      3.515  0.1618E-01  0.2107E-02  0.4611E-03
      3.586  0.9301E-01  0.1211E-01  0.2653E-02
      3.657  0.3336E+00  0.3860E-01  0.1230E-01
      3.728  0.0000E+00  0.0000E+00  0.0000E+00
      3.799  0.0000E+00  0.0000E+00  0.0000E+00
      3.869  0.1160E+00  0.1419E-01  0.3508E-02
      3.940  0.1739E+00  0.2127E-01  0.5259E-02
      4.011  0.0000E+00  0.0000E+00  0.0000E+00
      4.082  0.0000E+00  0.0000E+00  0.0000E+00
      4.153  0.2994E-02  0.5012E-03  0.1159E-03
      4.223  0.8529E+00  0.1384E+00  0.3457E-01
      4.294  0.2975E+00  0.4505E-01  0.1320E-01
      4.365  0.0000E+00  0.0000E+00  0.0000E+00
      4.436  0.1926E-01  0.1143E-06  0.2867E-02
      4.507  0.1693E+00  0.2315E-01  0.2528E-01
      4.578  0.2899E-01  0.3148E-01  0.1136E-01
      4.648  0.1333E+00  0.3010E-03  0.1024E-01
      4.719  0.1253E+01  0.2172E+00  0.1096E+00
      4.790  0.2827E+00  0.6015E-01  0.9731E-02
      4.861  0.4071E+00  0.1114E+00  0.3703E-01
      4.932  0.1815E+00  0.2859E-01  0.1007E-01
      5.003  0.4911E-01  0.1242E-02  0.5217E-02
      5.073  0.8333E+00  0.2388E-01  0.8195E-01
      5.144  0.4564E-05  0.7193E-03  0.3250E-04
      5.215  0.6151E-03  0.2172E+00  0.4491E-01
      5.286  0.5300E+00  0.8519E-01  0.3786E-01
      5.357  0.6595E-05  0.1472E-03  0.3336E-04
      5.427  0.1236E-01  0.2759E+00  0.6252E-01
      5.498  0.0000E+00  0.0000E+00  0.0000E+00
      5.569  0.0000E+00  0.0000E+00  0.0000E+00
      5.640  0.0000E+00  0.0000E+00  0.0000E+00
      5.711  0.0000E+00  0.0000E+00  0.0000E+00
      5.782  0.8403E-02  0.2726E-03  0.3280E-03
      5.852  0.2109E+00  0.4781E+00  0.4248E-01
      5.923  0.0000E+00  0.0000E+00  0.0000E+00
      5.994  0.0000E+00  0.0000E+00  0.0000E+00
      6.065  0.0000E+00  0.0000E+00  0.0000E+00
      6.136  0.0000E+00  0.0000E+00  0.0000E+00
      6.206  0.1980E+00  0.1431E+00  0.4717E-01
      6.277  0.1674E+00  0.2667E+00  0.4519E-01
      6.348  0.0000E+00  0.0000E+00  0.0000E+00
      6.419  0.5805E-01  0.4222E+00  0.3825E-01
      6.490  0.6208E-02  0.2671E+00  0.1062E+00
      6.561  0.0000E+00  0.0000E+00  0.0000E+00
      6.631  0.0000E+00  0.0000E+00  0.0000E+00
      6.702  0.1497E-02  0.1545E-01  0.1810E-02
      6.773  0.8863E-01  0.6071E+00  0.1366E+00
      6.844  0.4794E-02  0.7817E-01  0.1822E-01
      6.915  0.4741E-13  0.8116E-01  0.3839E-02
      6.986  0.4432E-01  0.7660E+00  0.6439E-01
      7.056  0.4177E-01  0.9987E-01  0.1642E-01
      7.127  0.2283E-02  0.1606E-01  0.1656E-02
      7.198  0.5382E-01  0.5923E+00  0.5137E-01
      7.269  0.2547E-04  0.5655E+00  0.6740E-01
      7.340  0.1902E-01  0.3875E+00  0.1075E+00
      7.410  0.0000E+00  0.0000E+00  0.0000E+00
      7.481  0.1420E-17  0.4978E-08  0.6446E-09
      7.552  0.1274E-09  0.4463E+00  0.5780E-01
      7.623  0.2111E-01  0.1141E+00  0.3851E-01
      7.694  0.1623E-01  0.8789E-01  0.2962E-01
      7.765  0.1496E-04  0.1624E-03  0.4022E-04
      7.835  0.2493E-01  0.2705E+00  0.6699E-01
      7.906  0.4859E-02  0.1734E+00  0.4800E-01
      7.977  0.9382E-03  0.3348E-01  0.9268E-02
      8.048  0.9089E-20  0.3350E-11  0.1245E-11
      8.119  0.1640E-09  0.6045E-01  0.2246E-01
      8.190  0.0000E+00  0.0000E+00  0.0000E+00
      8.260  0.0000E+00  0.0000E+00  0.0000E+00
      8.331  0.0000E+00  0.0000E+00  0.0000E+00
      8.402  0.0000E+00  0.0000E+00  0.0000E+00
      8.473  0.0000E+00  0.0000E+00  0.0000E+00
      8.544  0.0000E+00  0.0000E+00  0.0000E+00
      8.614  0.0000E+00  0.0000E+00  0.0000E+00
      8.685  0.0000E+00  0.0000E+00  0.0000E+00
      8.756  0.0000E+00  0.0000E+00  0.0000E+00
      8.827  0.0000E+00  0.0000E+00  0.0000E+00
      8.898  0.0000E+00  0.0000E+00  0.0000E+00
      8.969  0.0000E+00  0.0000E+00  0.0000E+00
      9.039  0.1780E-05  0.4816E-01  0.6711E-02
      9.110  0.5410E-05  0.1453E+00  0.2024E-01
      9.181  0.2445E-01  0.1041E-17  0.4914E-16
      9.252  0.0000E+00  0.0000E+00  0.0000E+00
      9.323  0.0000E+00  0.0000E+00  0.0000E+00
      9.393  0.0000E+00  0.0000E+00  0.0000E+00
      9.464  0.0000E+00  0.0000E+00  0.0000E+00
      9.535  0.0000E+00  0.0000E+00  0.0000E+00
      9.606  0.0000E+00  0.0000E+00  0.0000E+00
      9.677  0.0000E+00  0.0000E+00  0.0000E+00
      9.748  0.0000E+00  0.0000E+00  0.0000E+00
      9.818  0.0000E+00  0.0000E+00  0.0000E+00
      9.889  0.0000E+00  0.0000E+00  0.0000E+00
      9.960  0.0000E+00  0.0000E+00  0.0000E+00
     10.031  0.0000E+00  0.0000E+00  0.0000E+00
     10.102  0.0000E+00  0.0000E+00  0.0000E+00
     10.173  0.0000E+00  0.0000E+00  0.0000E+00
     10.243  0.4030E-07  0.2658E-12  0.1690E-06
     10.314  0.2980E-03  0.1966E-08  0.1250E-02
     10.385  0.0000E+00  0.0000E+00  0.0000E+00
     10.456  0.0000E+00  0.0000E+00  0.0000E+00
     10.527  0.0000E+00  0.0000E+00  0.0000E+00
     10.597  0.0000E+00  0.0000E+00  0.0000E+00
     10.668  0.0000E+00  0.0000E+00  0.0000E+00
     10.739  0.0000E+00  0.0000E+00  0.0000E+00
     10.810  0.0000E+00  0.0000E+00  0.0000E+00
     10.881  0.0000E+00  0.0000E+00  0.0000E+00
     10.952  0.0000E+00  0.0000E+00  0.0000E+00
     11.022  0.0000E+00  0.0000E+00  0.0000E+00
     11.093  0.0000E+00  0.0000E+00  0.0000E+00
     11.164  0.0000E+00  0.0000E+00  0.0000E+00
     11.235  0.0000E+00  0.0000E+00  0.0000E+00
     11.23487123    -10.01178815  301      1.83322446      1.00000000
    -10.012  0.0000E+00  0.0000E+00  0.0000E+00
     -9.941  0.0000E+00  0.0000E+00  0.0000E+00
     -9.870  0.0000E+00  0.0000E+00  0.0000E+00
     -9.799  0.0000E+00  0.0000E+00  0.0000E+00
     -9.728  0.0000E+00  0.0000E+00  0.0000E+00
     -9.658  0.0000E+00  0.0000E+00  0.0000E+00
     -9.587  0.0000E+00  0.0000E+00  0.0000E+00
     -9.516  0.0000E+00  0.0000E+00  0.0000E+00
     -9.445  0.0000E+00  0.0000E+00  0.0000E+00
     -9.374  0.0000E+00  0.0000E+00  0.0000E+00
     -9.304  0.0000E+00  0.0000E+00  0.0000E+00
     -9.233  0.0000E+00  0.0000E+00  0.0000E+00
     -9.162  0.0000E+00  0.0000E+00  0.0000E+00
     -9.091  0.5451E-12  0.1596E-33  0.9179E-31
     -9.020  0.5907E-02  0.5403E-11  0.4192E-10
     -8.949  0.3095E-01  0.1088E-02  0.8437E-02
     -8.879  0.6468E-01  0.5358E-02  0.4547E-01
     -8.808  0.3865E-01  0.6108E-02  0.5515E-01
     -8.737  0.1219E+00  0.3587E-01  0.3524E+00
     -8.666  0.7399E-01  0.5124E-01  0.5547E+00
     -8.595  0.6517E-01  0.1379E+00  0.1554E+01
     -8.525  0.0000E+00  0.0000E+00  0.0000E+00
     -8.454  0.0000E+00  0.0000E+00  0.0000E+00
     -8.383  0.0000E+00  0.0000E+00  0.0000E+00
     -8.312  0.0000E+00  0.0000E+00  0.0000E+00
     -8.241  0.0000E+00  0.0000E+00  0.0000E+00
     -8.170  0.0000E+00  0.0000E+00  0.0000E+00
     -8.100  0.0000E+00  0.0000E+00  0.0000E+00
     -8.029  0.0000E+00  0.0000E+00  0.0000E+00
     -7.958  0.0000E+00  0.0000E+00  0.0000E+00
     -7.887  0.0000E+00  0.0000E+00  0.0000E+00
     -7.816  0.0000E+00  0.0000E+00  0.0000E+00
     -7.745  0.0000E+00  0.0000E+00  0.0000E+00
     -7.675  0.0000E+00  0.0000E+00  0.0000E+00
     -7.604  0.0000E+00  0.0000E+00  0.0000E+00
     -7.533  0.0000E+00  0.0000E+00  0.0000E+00
     -7.462  0.0000E+00  0.0000E+00  0.0000E+00
     -7.391  0.0000E+00  0.0000E+00  0.0000E+00
     -7.321  0.0000E+00  0.0000E+00  0.0000E+00
     -7.250  0.0000E+00  0.0000E+00  0.0000E+00
     -7.179  0.0000E+00  0.0000E+00  0.0000E+00
     -7.108  0.0000E+00  0.0000E+00  0.0000E+00
     -7.037  0.0000E+00  0.0000E+00  0.0000E+00
     -6.966  0.0000E+00  0.0000E+00  0.0000E+00
     -6.896  0.0000E+00  0.0000E+00  0.0000E+00
     -6.825  0.0000E+00  0.0000E+00  0.0000E+00
     -6.754  0.0000E+00  0.0000E+00  0.0000E+00
     -6.683  0.0000E+00  0.0000E+00  0.0000E+00
     -6.612  0.0000E+00  0.0000E+00  0.0000E+00
     -6.542  0.0000E+00  0.0000E+00  0.0000E+00
     -6.471  0.0000E+00  0.0000E+00  0.0000E+00
     -6.400  0.0000E+00  0.0000E+00  0.0000E+00
     -6.329  0.2656E-15  0.3916E-06  0.1277E-02
     -6.258  0.2265E-02  0.3713E-02  0.1094E+02
     -6.187  0.9535E-02  0.1567E-01  0.4204E+02
     -6.117  0.1637E-01  0.6530E-03  0.1524E+02
     -6.046  0.5296E-02  0.4037E-03  0.3999E+02
     -5.975  0.2025E-01  0.1053E-02  0.2317E+01
     -5.904  0.2163E-01  0.1716E-02  0.2272E+01
     -5.833  0.1274E-01  0.1970E-02  0.1402E+01
     -5.762  0.3590E-01  0.9812E-02  0.5022E+01
     -5.692  0.2402E-01  0.1105E-01  0.4613E+01
     -5.621  0.9363E-02  0.1576E-01  0.4553E+01
     -5.550  0.1147E-26  0.1842E-02  0.4796E+00
     -5.479  0.0000E+00  0.0000E+00  0.0000E+00
     -5.408  0.0000E+00  0.0000E+00  0.0000E+00
     -5.338  0.0000E+00  0.0000E+00  0.0000E+00
     -5.267  0.0000E+00  0.0000E+00  0.0000E+00
     -5.196  0.0000E+00  0.0000E+00  0.0000E+00
     -5.125  0.0000E+00  0.0000E+00  0.0000E+00
     -5.054  0.0000E+00  0.0000E+00  0.0000E+00
     -4.983  0.0000E+00  0.0000E+00  0.0000E+00
     -4.913  0.0000E+00  0.0000E+00  0.0000E+00
     -4.842  0.0000E+00  0.0000E+00  0.0000E+00
     -4.771  0.0000E+00  0.0000E+00  0.0000E+00
     -4.700  0.0000E+00  0.0000E+00  0.0000E+00
     -4.629  0.0000E+00  0.0000E+00  0.0000E+00
     -4.558  0.0000E+00  0.0000E+00  0.0000E+00
     -4.488  0.0000E+00  0.0000E+00  0.0000E+00
     -4.417  0.0000E+00  0.0000E+00  0.0000E+00
     -4.346  0.0000E+00  0.0000E+00  0.0000E+00
     -4.275  0.0000E+00  0.0000E+00  0.0000E+00
     -4.204  0.0000E+00  0.0000E+00  0.0000E+00
     -4.134  0.0000E+00  0.0000E+00  0.0000E+00
     -4.063  0.0000E+00  0.0000E+00  0.0000E+00
     -3.992  0.0000E+00  0.0000E+00  0.0000E+00
     -3.921  0.0000E+00  0.0000E+00  0.0000E+00
     -3.850  0.0000E+00  0.0000E+00  0.0000E+00
     -3.779  0.0000E+00  0.0000E+00  0.0000E+00
     -3.709  0.0000E+00  0.0000E+00  0.0000E+00