    8    8  100    1
  0.3631583E+02  0.6623111E-09  0.6623111E-09  0.6623111E-09  0.5000000E-15
  1.000000000000000E-004
  CAR 
 Name                                    
     72     10     48
 
  0.0000000E+00  0.0000000E+00  0.0000000E+00  0.1562500E-01
    1       -9.046031
    2       -8.606301
    3       -8.606301
    4       -8.606301
    5       -6.310418
    6       -6.310418
    7       -6.310418
    8       -6.177458
    9       -6.177458
   10       -6.177458
   11       -6.177458
   12       -6.177458
   13       -6.177458
   14       -6.174828
   15       -6.174828
   16       -6.174828
   17       -6.095984
   18       -6.095984
   19       -6.070540
   20       -6.070540
   21       -6.070540
   22       -5.675662
   23       -5.675662
   24       -5.675662
   25       -2.226798
   26       -2.226798
   27       -2.226798
   28        0.122240
   29        0.122240
   30        0.122240
   31        0.122240
   32        0.122240
   33        0.122240
   34        1.772402
   35        1.772402
   36        1.772402
   37        2.345352
   38        4.440255
   39        4.440255
   40        4.440255
   41        4.518706
   42        4.518706
   43        4.518706
   44        6.411901
   45        6.411901
   46        6.411901
   47        9.143357
   48       10.269114
 
  0.2500000E+00  0.0000000E+00  0.0000000E+00  0.9375000E-01
    1       -8.979748
    2       -8.667324
    3       -8.606942
    4       -8.606942
    5       -6.292502
    6       -6.292502
    7       -6.266079
    8       -6.198612
    9       -6.198612
   10       -6.196351
   11       -6.196351
   12       -6.195030
   13       -6.195030
   14       -6.166977
   15       -6.144622
   16       -6.144622
   17       -6.100935
   18       -6.092273
   19       -6.078731
   20       -6.078731
   21       -6.074268
   22       -5.829233
   23       -5.643413
   24       -5.643413
   25       -2.171655
   26       -2.171655
   27       -1.799912
   28       -0.095486
   29       -0.095486
   30       -0.026283
   31       -0.026283
   32        0.310581
   33        0.310581
   34        0.539556
   35        1.447559
   36        1.447559
   37        3.610037
   38        4.467091
   39        4.813688
   40        5.010167
   41        5.010167
   42        5.169979
   43        5.169979
   44        5.841754
   45        6.924679
   46        6.924679
   47        9.044167
   48        9.044182
 
  0.5000000E+00  0.0000000E+00  0.0000000E+00  0.4687500E-01
    1       -8.820955
    2       -8.820955
    3       -8.607606
    4       -8.607606
    5       -6.247161
    6       -6.247161
    7       -6.247161
    8       -6.247161
    9       -6.210869
   10       -6.210869
   11       -6.202894
   12       -6.202894
   13       -6.166390
   14       -6.166390
   15       -6.119531
   16       -6.119531
   17       -6.094142
   18       -6.094142
   19       -6.083271
   20       -6.083271
   21       -6.063110
   22       -6.063110
   23       -5.612656
   24       -5.612656
   25       -2.108594
   26       -2.108594
   27       -0.773753
   28       -0.773753
   29       -0.301145
   30       -0.301145
   31       -0.159986
   32       -0.159986
   33        0.818454
   34        0.818454
   35        0.818454
   36        0.818454
   37        4.584093
   38        4.584093
   39        5.161408
   40        5.161408
   41        5.793157
   42        5.793157
   43        6.470502
   44        6.470502
   45        7.251746
   46        7.251746
   47        8.093490
   48        8.093491
 
  0.2500000E+00  0.2500000E+00  0.0000000E+00  0.1875000E+00
    1       -8.923019
    2       -8.658522
    3       -8.658522
    4       -8.615882
    5       -6.291222
    6       -6.280673
    7       -6.215575
    8       -6.215203
    9       -6.215203
   10       -6.210521
   11       -6.210521
   12       -6.200027
   13       -6.197470
   14       -6.141800
   15       -6.141800
   16       -6.131959
   17       -6.101443
   18       -6.090945
   19       -6.084178
   20       -6.079735
   21       -6.079735
   22       -5.774879
   23       -5.774879
   24       -5.641767
   25       -2.128538
   26       -1.874854
   27       -1.874854
   28       -0.497558
   29       -0.178182
   30        0.002187
   31        0.002187
   32        0.334808
   33        0.334808
   34        0.407447
   35        1.096496
   36        1.607246
   37        3.871152
   38        4.689654
   39        5.017792
   40        5.017792
   41        5.379768
   42        5.379768
   43        6.202271
   44        6.254063
   45        6.714264
   46        7.166816
   47        7.787486
   48        7.787486
 
  0.5000000E+00  0.2500000E+00  0.0000000E+00  0.1875000E+00
    1       -8.788226
    2       -8.788226
    3       -8.637263
    4       -8.637263
    5       -6.257854
    6       -6.257854
    7       -6.248125
    8       -6.248125
    9       -6.225439
   10       -6.225439
   11       -6.214609
   12       -6.214609
   13       -6.129758
   14       -6.129758
   15       -6.114845
   16       -6.114845
   17       -6.093471
   18       -6.093471
   19       -6.087538
   20       -6.087538
   21       -6.009299
   22       -6.009299
   23       -5.681651
   24       -5.681651
   25       -2.021506
   26       -2.021506
   27       -1.138102
   28       -1.138102
   29       -0.447254
   30       -0.447254
   31        0.447547
   32        0.447547
   33        0.459879
   34        0.459879
   35        1.052326
   36        1.052326
   37        4.688874
   38        4.688874
   39        5.269165
   40        5.269165
   41        5.804035
   42        5.804035
   43        6.716830
   44        6.716830
   45        7.139338
   46        7.139338
   47        7.285715
   48        7.285715
 
  0.5000000E+00  0.5000000E+00  0.0000000E+00  0.4687500E-01
    1       -8.711180
    2       -8.711180
    3       -8.711180
    4       -8.711180
    5       -6.245169
    6       -6.245169
    7       -6.245169
    8       -6.245169
    9       -6.242680
   10       -6.242680
   11       -6.242680
   12       -6.242680
   13       -6.101803
   14       -6.101803
   15       -6.101803
   16       -6.101803
   17       -6.100345
   18       -6.100345
   19       -6.100345
   20       -6.100345
   21       -5.849525
   22       -5.849525
   23       -5.849525
   24       -5.849525
   25       -1.690027
   26       -1.690027
   27       -1.690027
   28       -1.690027
   29       -0.133882
   30       -0.133882
   31       -0.133882
   32       -0.133882
   33        1.063320
   34        1.063320
   35        1.063320
   36        1.063320
   37        4.769703
   38        4.769703
   39        4.769703
   40        4.769703
   41        6.964393
   42        6.964393
   43        6.964393
   44        6.964393
   45        7.325926
   46        7.325926
   47        7.325926
   48        7.325926
 
  0.2500000E+00  0.2500000E+00  0.2500000E+00  0.1250000E+00
    1       -8.875972
    2       -8.658291
    3       -8.658291
    4       -8.658291
    5       -6.281100
    6       -6.281100
    7       -6.230046
    8       -6.230046
    9       -6.230046
   10       -6.216197
   11       -6.216197
   12       -6.216197
   13       -6.131403
   14       -6.127073
   15       -6.127073
   16       -6.127073
   17       -6.096050
   18       -6.096050
   19       -6.082489
   20       -6.082489
   21       -6.082489
   22       -5.744139
   23       -5.744139
   24       -5.744139
   25       -2.009907
   26       -2.009907
   27       -2.009907
   28       -0.785932
   29       -0.079811
   30       -0.079811
   31       -0.079811
   32        0.557130
   33        0.557130
   34        0.557130
   35        1.397523
   36        1.397523
   37        3.644758
   38        4.702757
   39        4.702757
   40        4.702757
   41        6.205289
   42        6.205289
   43        6.205289
   44        6.921750
   45        6.921750
   46        7.017510
   47        7.899249
   48        7.899249
 
  0.5000000E+00  0.2500000E+00  0.2500000E+00  0.1875000E+00
    1       -8.764790
    2       -8.764790
    3       -8.658061
    4       -8.658061
    5       -6.261120
    6       -6.261120
    7       -6.252545
    8       -6.252545
    9       -6.237217
   10       -6.237217
   11       -6.227525
   12       -6.227525
   13       -6.112675
   14       -6.112675
   15       -6.107675
   16       -6.107675
   17       -6.090907
   18       -6.090907
   19       -6.086122
   20       -6.086122
   21       -5.955197
   22       -5.955197
   23       -5.713753
   24       -5.713753
   25       -2.136403
   26       -2.136403
   27       -1.555436
   28       -1.555436
   29       -0.075920
   30       -0.075920
   31        0.657699
   32        0.657699
   33        0.827920
   34        0.827920
   35        0.948561
   36        0.948561
   37        4.223842
   38        4.223842
   39        4.857672
   40        4.857672
   41        6.408970
   42        6.408970
   43        6.433457
   44        6.433457
   45        7.520844
   46        7.520844
   47        7.621777
   48        7.621783
 
  0.5000000E+00  0.5000000E+00  0.2500000E+00  0.9375000E-01
    1       -8.710099
    2       -8.710099
    3       -8.710099
    4       -8.710099
    5       -6.252030
    6       -6.252030
    7       -6.252030
    8       -6.252030
    9       -6.251170
   10       -6.251170
   11       -6.251170
   12       -6.251170
   13       -6.094850
   14       -6.094850
   15       -6.094850
   16       -6.094850
   17       -6.093658
   18       -6.093658
   19       -6.093658
   20       -6.093658
   21       -5.822304
   22       -5.822304
   23       -5.822304
   24       -5.822304
   25       -2.042517
   26       -2.042517
   27       -2.042517
   28       -2.042517
   29        0.473524
   30        0.473524
   31        0.473524
   32        0.473524
   33        1.076594
   34        1.076594
   35        1.076594
   36        1.076594
   37        4.170796
   38        4.170796
   39        4.170796
   40        4.170796
   41        6.768471
   42        6.768471
   43        6.768471
   44        6.768471
   45        7.228945
   46        7.228945
   47        7.228945
   48        7.228945
 
  0.5000000E+00  0.5000000E+00  0.5000000E+00  0.1562500E-01
    1       -8.709001
    2       -8.709001
    3       -8.709001
    4       -8.709001
    5       -6.258333
    6       -6.258333
    7       -6.258333
    8       -6.258333
    9       -6.258333
   10       -6.258333
   11       -6.258333
   12       -6.258333
   13       -6.088458
   14       -6.088458
   15       -6.088458
   16       -6.088458
   17       -6.088458
   18       -6.088458
   19       -6.088458
   20       -6.088458
   21       -5.793823
   22       -5.793823
   23       -5.793823
   24       -5.793823
   25       -2.292109
   26       -2.292109
   27       -2.292109
   28       -2.292109
   29        1.090074
   30        1.090074
   31        1.090074
   32        1.090074
   33        1.090074
   34        1.090074
   35        1.090074
   36        1.090074
   37        3.522634
   38        3.522634
   39        3.522634
   40        3.522634
   41        6.979349
   42        6.979349
   43        6.979349
   44        6.979349
   45        6.979349
   46        6.979349
   47        6.979349
   48        6.979349
