       N       E                     dE             d eps       ncg     rms          rms(c)
DAV:   1     0.443734978344E+03    0.44373E+03   -0.31014E+04   960   0.126E+03
DAV:   2     0.505785512770E+01   -0.43868E+03   -0.42483E+03  1064   0.304E+02
DAV:   3    -0.198045144993E+02   -0.24862E+02   -0.24714E+02  1136   0.717E+01
DAV:   4    -0.201816932440E+02   -0.37718E+00   -0.37702E+00  1144   0.769E+00
DAV:   5    -0.201866613745E+02   -0.49681E-02   -0.49680E-02  1128   0.972E-01    0.978E+00
DAV:   6    -0.192903944272E+02    0.89627E+00   -0.19195E+00  1016   0.927E+00    0.811E+00
DAV:   7    -0.192402334475E+02    0.50161E-01   -0.66796E-01  1056   0.291E+00    0.317E+00
DAV:   8    -0.192422248398E+02   -0.19914E-02   -0.50686E-02  1008   0.165E+00    0.106E+00
DAV:   9    -0.192437321533E+02   -0.15073E-02   -0.67194E-03  1064   0.558E-01    0.240E-01
DAV:  10    -0.192436487724E+02    0.83381E-04   -0.90249E-04  1024   0.215E-01    0.130E-01
DAV:  11    -0.192438379964E+02   -0.18922E-03   -0.75623E-04  1080   0.137E-01    0.701E-02
DAV:  12    -0.192438237202E+02    0.14276E-04   -0.74439E-05  1064   0.570E-02    0.500E-02
DAV:  13    -0.192438252428E+02   -0.15226E-05   -0.22988E-06   912   0.689E-03    0.574E-02
DAV:  14    -0.192438271841E+02   -0.19413E-05   -0.42601E-05   992   0.274E-02    0.145E-02
DAV:  15    -0.192438260999E+02    0.10842E-05   -0.39669E-06  1000   0.914E-03    0.197E-02
DAV:  16    -0.192438262163E+02   -0.11638E-06   -0.19094E-07   560   0.205E-03
   1 F= -.19243826E+02 E0= -.19243826E+02  d E =-.192438E+02
       N       E                     dE             d eps       ncg     rms          rms(c)
DAV:   1    -0.192443402224E+02   -0.51412E-03   -0.10458E-02  1056   0.704E-01    0.168E-01
DAV:   2    -0.192439153205E+02    0.42490E-03   -0.12151E-03  1032   0.292E-01    0.523E-02
DAV:   3    -0.192438683241E+02    0.46996E-04   -0.11330E-04  1008   0.590E-02    0.456E-02
DAV:   4    -0.192438532499E+02    0.15074E-04   -0.14498E-05   960   0.152E-02    0.830E-03
DAV:   5    -0.192438508373E+02    0.24126E-05   -0.35487E-06   824   0.133E-02    0.524E-03
DAV:   6    -0.192438503777E+02    0.45957E-06   -0.47280E-07   552   0.457E-03
   2 F= -.19243850E+02 E0= -.19243850E+02  d E =-.241614E-04
