    8    8  100    1
  0.9018106E+02  0.8968816E-09  0.8968816E-09  0.8968816E-09  0.5000000E-15
  1.000000000000000E-004
  CAR 
 Name                                    
     72      4     43
