       N       E                     dE             d eps       ncg     rms          ort
DAV:   1     0.345876934304E+05    0.34588E+05   -0.11421E+06  3584   0.486E+03
DAV:   2     0.859285797255E+04   -0.25995E+05   -0.25261E+05  3584   0.168E+03
DAV:   3     0.178901068646E+04   -0.68038E+04   -0.66996E+04  3584   0.499E+02
DAV:   4     0.438670940769E+03   -0.13503E+04   -0.12956E+04  3584   0.208E+02
DAV:   5     0.274344748752E+03   -0.16433E+03   -0.16175E+03  3584   0.776E+01
SDA:   6    -0.449625520809E+03   -0.72397E+03   -0.16175E+03  3584   0.109E+03 0.000E+00
CGA:   7    -0.467886481258E+03   -0.18261E+02   -0.18324E+02  3584   0.382E+02 0.606E+00
CGA:   8    -0.475412513850E+03   -0.75260E+01   -0.75263E+01  3584   0.808E+01 0.900E-02
CGA:   9    -0.478111757908E+03   -0.26992E+01   -0.26989E+01  3584   0.270E+01-0.838E-02
CGA:  10    -0.478968000303E+03   -0.85624E+00   -0.85711E+00  3584   0.987E+00-0.793E-02
CGA:  11    -0.479184359651E+03   -0.21636E+00   -0.21638E+00  3584   0.400E+00-0.140E-02
CGA:  12    -0.479293314547E+03   -0.10895E+00   -0.10906E+00  3584   0.999E-01-0.163E-02
CGA:  13    -0.479327216915E+03   -0.33902E-01   -0.33962E-01  3584   0.303E-01-0.435E-03
CGA:  14    -0.479337105455E+03   -0.98885E-02   -0.98957E-02  3584   0.114E-01-0.549E-04
CGA:  15    -0.479339830914E+03   -0.27255E-02   -0.27286E-02  3584   0.597E-02-0.233E-03
CGA:  16    -0.479341216551E+03   -0.13856E-02   -0.13852E-02  3584   0.178E-02 0.474E-04
CGA:  17    -0.479341874395E+03   -0.65784E-03   -0.66539E-03  3584   0.674E-03-0.523E-04
CGA:  18    -0.479342100758E+03   -0.22636E-03   -0.22623E-03  3584   0.253E-03 0.136E-05
CGA:  19    -0.479342182371E+03   -0.81613E-04   -0.81244E-04  3584   0.886E-04 0.459E-05
CGA:  20    -0.479342212705E+03   -0.30334E-04   -0.30095E-04  3584   0.354E-04 0.268E-05
CGA:  21    -0.479342223907E+03   -0.11202E-04   -0.11243E-04  3584   0.216E-04-0.683E-06
CGA:  22    -0.479342228776E+03   -0.48697E-05   -0.48699E-05  3584   0.829E-05 0.137E-07
CGA:  23    -0.479342231209E+03   -0.24328E-05   -0.24459E-05  3584   0.318E-05-0.287E-06
CGA:  24    -0.479342232091E+03   -0.88206E-06   -0.88561E-06  3584   0.128E-05-0.964E-07
CGA:  25    -0.479342232499E+03   -0.40815E-06   -0.55230E-06  3584   0.176E-05-0.759E-06
CGA:  26    -0.479342232725E+03   -0.22560E-06   -0.23883E-06  3584   0.270E-06 0.103E-06
CGA:  27    -0.479342232639E+03    0.85518E-07   -0.24695E-06  3584   0.184E-05-0.548E-06
CGA:  28    -0.479342232877E+03   -0.23802E-06   -0.27705E-06  3584   0.244E-06 0.285E-06
CGA:  29    -0.479342232960E+03   -0.82331E-07   -0.85450E-07  3584   0.138E-06-0.138E-06
CGA:  30    -0.479342232962E+03   -0.18590E-08   -0.13209E-07  3584   0.333E-07 0.604E-07
   1 F= -.47934223E+03 E0= -.47934223E+03  d E =-.149131-109
