 vasp.5.4.1 24Jun15 (build Nov 25 2015 16:01:35) complex                        
  
 executed on         CrayXC-Intel date 2016.06.26  03:51:03
 running on 1344 total cores
 distrk:  each k-point on  192 cores,    7 groups
 distr:  one band on NCORES_PER_BAND=  12 cores,   16 groups


--------------------------------------------------------------------------------------------------------


 INCAR:
 POTCAR:    PAW_PBE C 08Apr2002                   
 POTCAR:    PAW_PBE N 08Apr2002                   
 POTCAR:    PAW_PBE H 15Jun2001                   
 POTCAR:    PAW_PBE Pb_d 06Sep2000                
 POTCAR:    PAW_PBE I 08Apr2002                   

 ----------------------------------------------------------------------------- 
|                                                                             |
|           W    W    AA    RRRRR   N    N  II  N    N   GGGG   !!!           |
|           W    W   A  A   R    R  NN   N  II  NN   N  G    G  !!!           |
|           W    W  A    A  R    R  N N  N  II  N N  N  G       !!!           |
|           W WW W  AAAAAA  RRRRR   N  N N  II  N  N N  G  GGG   !            |
|           WW  WW  A    A  R   R   N   NN  II  N   NN  G    G                |
|           W    W  A    A  R    R  N    N  II  N    N   GGGG   !!!           |
|                                                                             |
|      For optimal performance we recommend to set                            |
|        NCORE= 4 - approx SQRT( number of cores)                             |
|      NCORE specifies how many cores store one orbital (NPAR=cpu/NCORE).     |
|      This setting can  greatly improve the performance of VASP for DFT.     |
|      The default, NPAR=number of cores might be grossly inefficient         |
|      on modern multi-core architectures or massively parallel machines.     |
|      Do your own testing !!!!                                               |
|      Unfortunately you need to use the default for GW and RPA calculations. |
|      (for HF NCORE is supported but not extensively tested yet)             |
|                                                                             |
 ----------------------------------------------------------------------------- 


 ----------------------------------------------------------------------------- 
|                                                                             |
|           W    W    AA    RRRRR   N    N  II  N    N   GGGG   !!!           |
|           W    W   A  A   R    R  NN   N  II  NN   N  G    G  !!!           |
|           W    W  A    A  R    R  N N  N  II  N N  N  G       !!!           |
|           W WW W  AAAAAA  RRRRR   N  N N  II  N  N N  G  GGG   !            |
|           WW  WW  A    A  R   R   N   NN  II  N   NN  G    G                |
|           W    W  A    A  R    R  N    N  II  N    N   GGGG   !!!           |
|                                                                             |
|      You have enabled k-point parallelism (KPAR>1).                         |
|      This developmental code was originally  written by Paul Kent at ORNL,  |
|      and carefully double checked in Vienna.                                |
|      GW as well as linear response parallelism added by Martijn Marsman     |
|      and Georg Kresse.                                                      |
|      Carefully verify results versus KPAR=1.                                |
|      Report problems to Paul Kent and Vienna.                               |
|                                                                             |
 ----------------------------------------------------------------------------- 

 POTCAR:    PAW_PBE C 08Apr2002                   
   VRHFIN =C: s2p2                                                              
   LEXCH  = PE                                                                  
   EATOM  =   147.1560 eV,   10.8157 Ry                                         
                                                                                
   TITEL  = PAW_PBE C 08Apr2002                                                 
   LULTRA =        F    use ultrasoft PP ?                                      
   IUNSCR =        1    unscreen: 0-lin 1-nonlin 2-no                           
   RPACOR =    1.200    partial core radius                                     
   POMASS =   12.011; ZVAL   =    4.000    mass and valenz                      
   RCORE  =    1.500    outmost cutoff radius                                   
   RWIGS  =    1.630; RWIGS  =    0.863    wigner-seitz radius (au A)           
   ENMAX  =  400.000; ENMIN  =  300.000 eV                                      
   ICORE  =        2    local potential                                         
   LCOR   =        T    correct aug charges                                     
   LPAW   =        T    paw PP                                                  
   EAUG   =  644.873                                                            
   DEXC   =    0.000                                                            
   RMAX   =    1.529    core radius for proj-oper                               
   RAUG   =    1.300    factor for augmentation sphere                          
   RDEP   =    1.501    radius for radial grids                                 
   RDEPT  =    1.300    core radius for aug-charge                              
                                                                                
   Atomic configuration                                                         
    4 entries                                                                   
     n  l   j            E        occ.                                          
     1  0  0.50      -273.3789   2.0000                                         
     2  0  0.50       -13.7508   2.0000                                         
     2  1  0.50        -5.2854   2.0000                                         
     3  2  1.50        -5.4423   0.0000                                         
   Description                                                                  
     l       E           TYP  RCUT    TYP  RCUT                                 
     0    -13.7508458     23  1.200                                             
     0     -8.2022199     23  1.200                                             
     1     -5.2854383     23  1.500                                             
     1     34.0145650     23  1.500                                             
     2     -5.4423304      7  1.500                                             
  local pseudopotential read in
  partial core-charges read in
  partial kinetic energy density read in
  atomic valenz-charges read in
  non local Contribution for L=           0  read in
    real space projection operators read in
  non local Contribution for L=           0  read in
    real space projection operators read in
  non local Contribution for L=           1  read in
    real space projection operators read in
  non local Contribution for L=           1  read in
    real space projection operators read in
    PAW grid and wavefunctions read in
 
   number of l-projection  operators is LMAX  =           4
   number of lm-projection operators is LMMAX =           8
 
 POTCAR:    PAW_PBE N 08Apr2002                   
   VRHFIN =N: s2p3                                                              
   LEXCH  = PE                                                                  
   EATOM  =   264.5486 eV,   19.4438 Ry                                         
                                                                                
   TITEL  = PAW_PBE N 08Apr2002                                                 
   LULTRA =        F    use ultrasoft PP ?                                      
   IUNSCR =        1    unscreen: 0-lin 1-nonlin 2-no                           
   RPACOR =    1.200    partial core radius                                     
   POMASS =   14.001; ZVAL   =    5.000    mass and valenz                      
   RCORE  =    1.500    outmost cutoff radius                                   
   RWIGS  =    1.400; RWIGS  =    0.741    wigner-seitz radius (au A)           
   ENMAX  =  400.000; ENMIN  =  300.000 eV                                      
   ICORE  =        2    local potential                                         
   LCOR   =        T    correct aug charges                                     
   LPAW   =        T    paw PP                                                  
   EAUG   =  627.112                                                            
   DEXC   =    0.000                                                            
   RMAX   =    1.529    core radius for proj-oper                               
   RAUG   =    1.300    factor for augmentation sphere                          
   RDEP   =    1.514    radius for radial grids                                 
   RDEPT  =    1.338    core radius for aug-charge                              
                                                                                
   Atomic configuration                                                         
    4 entries                                                                   
     n  l   j            E        occ.                                          
     1  0  0.50      -384.7179   2.0000                                         
     2  0  0.50       -18.5828   2.0000                                         
     2  1  0.50        -7.0898   3.0000                                         
     3  2  1.50        -6.8029   0.0000                                         
   Description                                                                  
     l       E           TYP  RCUT    TYP  RCUT                                 
     0    -18.5828119     23  1.200                                             
     0    -13.5018863     23  1.200                                             
     1     -7.0897853     23  1.500                                             
     1      9.5240782     23  1.500                                             
     2     -6.8029130      7  1.500                                             
  local pseudopotential read in
  partial core-charges read in
  partial kinetic energy density read in
  atomic valenz-charges read in
  non local Contribution for L=           0  read in
    real space projection operators read in
  non local Contribution for L=           0  read in
    real space projection operators read in
  non local Contribution for L=           1  read in
    real space projection operators read in
  non local Contribution for L=           1  read in
    real space projection operators read in
    PAW grid and wavefunctions read in
 
   number of l-projection  operators is LMAX  =           4
   number of lm-projection operators is LMMAX =           8
 
 POTCAR:    PAW_PBE H 15Jun2001                   
   VRHFIN =H: ultrasoft test                                                    
   LEXCH  = PE                                                                  
   EATOM  =    12.4884 eV,    0.9179 Ry                                         
                                                                                
   TITEL  = PAW_PBE H 15Jun2001                                                 
   LULTRA =        F    use ultrasoft PP ?                                      
   IUNSCR =        0    unscreen: 0-lin 1-nonlin 2-no                           
   RPACOR =    0.000    partial core radius                                     
   POMASS =    1.000; ZVAL   =    1.000    mass and valenz                      
   RCORE  =    1.100    outmost cutoff radius                                   
   RWIGS  =    0.700; RWIGS  =    0.370    wigner-seitz radius (au A)           
   ENMAX  =  250.000; ENMIN  =  200.000 eV                                      
   RCLOC  =    0.701    cutoff for local pot                                    
   LCOR   =        T    correct aug charges                                     
   LPAW   =        T    paw PP                                                  
   EAUG   =  400.000                                                            
   RMAX   =    1.123    core radius for proj-oper                               
   RAUG   =    1.200    factor for augmentation sphere                          
   RDEP   =    1.112    radius for radial grids                                 
   RDEPT  =    0.926    core radius for aug-charge                              
                                                                                
   Atomic configuration                                                         
    2 entries                                                                   
     n  l   j            E        occ.                                          
     1  0  0.50        -6.4927   1.0000                                         
     2  1  0.50        -3.4015   0.0000                                         
   Description                                                                  
     l       E           TYP  RCUT    TYP  RCUT                                 
     0     -6.4927494     23  1.100                                             
     0      6.8029130     23  1.100                                             
     1     -4.0817478     23  1.100                                             
  local pseudopotential read in
  atomic valenz-charges read in
  non local Contribution for L=           0  read in
    real space projection operators read in
  non local Contribution for L=           0  read in
    real space projection operators read in
  non local Contribution for L=           1  read in
    real space projection operators read in
    PAW grid and wavefunctions read in
 
   number of l-projection  operators is LMAX  =           3
   number of lm-projection operators is LMMAX =           5
 
 POTCAR:    PAW_PBE Pb_d 06Sep2000                
   VRHFIN =Pb:                                                                  
   LEXCH  = PE                                                                  
   EATOM  =  1661.6185 eV,  122.1255 Ry                                         
                                                                                
   TITEL  = PAW_PBE Pb_d 06Sep2000                                              
   LULTRA =        F    use ultrasoft PP ?                                      
   IUNSCR =        1    unscreen: 0-lin 1-nonlin 2-no                           
   RPACOR =    2.200    partial core radius                                     
   POMASS =  207.200; ZVAL   =   14.000    mass and valenz                      
   RCORE  =    2.500    outmost cutoff radius                                   
   RWIGS  =    3.260; RWIGS  =    1.725    wigner-seitz radius (au A)           
   ENMAX  =  237.835; ENMIN  =  178.376 eV                                      
   ICORE  =        3    local potential                                         
   LCOR   =        T    correct aug charges                                     
   LPAW   =        T    paw PP                                                  
   EAUG   =  391.914                                                            
   DEXC   =    0.000                                                            
   RMAX   =    2.565    core radius for proj-oper                               
   RAUG   =    1.300    factor for augmentation sphere                          
   RDEP   =    2.643    radius for radial grids                                 
   RDEPT  =    2.092    core radius for aug-charge                              
                                                                                
   Atomic configuration                                                         
   16 entries                                                                   
     n  l   j            E        occ.                                          
     1  0  0.50    -88091.8466   2.0000                                         
     2  0  0.50    -15753.4197   2.0000                                         
     2  1  1.50    -13508.1797   6.0000                                         
     3  0  0.50     -3781.7194   2.0000                                         
     3  1  1.50     -3138.2529   6.0000                                         
     3  2  2.50     -2483.2977  10.0000                                         
     4  0  0.50      -856.2895   2.0000                                         
     4  1  1.50      -645.4942   6.0000                                         
     4  2  2.50      -401.8768  10.0000                                         
     4  3  3.50      -132.9059  14.0000                                         
     5  0  0.50      -144.0950   2.0000                                         
     5  1  1.50       -85.7879   6.0000                                         
     5  2  2.50       -21.1769  10.0000                                         
     6  0  0.50       -12.0372   2.0000                                         
     6  1  1.50        -3.4971   2.0000                                         
     5  3  2.50        -2.7212   0.0000                                         
   Description                                                                  
     l       E           TYP  RCUT    TYP  RCUT                                 
     2    -21.1768523     23  2.500                                             
     2      1.3605826     23  2.500                                             
     0    -12.0371562     23  2.500                                             
     0     13.6058260     23  2.500                                             
     1     -3.4971339     23  2.500                                             
     1     13.6058260     23  2.500                                             
     3     -1.3605826      7  2.500                                             
  local pseudopotential read in
  partial core-charges read in
  partial kinetic energy density read in
  atomic valenz-charges read in
  non local Contribution for L=           2  read in
    real space projection operators read in
  non local Contribution for L=           2  read in
    real space projection operators read in
  non local Contribution for L=           0  read in
    real space projection operators read in
  non local Contribution for L=           0  read in
    real space projection operators read in
  non local Contribution for L=           1  read in
    real space projection operators read in
  non local Contribution for L=           1  read in
    real space projection operators read in
    PAW grid and wavefunctions read in
 
   number of l-projection  operators is LMAX  =           6
   number of lm-projection operators is LMMAX =          18
 
 POTCAR:    PAW_PBE I 08Apr2002                   
   VRHFIN =I : s2p5                                                             
   LEXCH  = PE                                                                  
   EATOM  =   315.8678 eV,   23.2156 Ry                                         
                                                                                
   TITEL  = PAW_PBE I 08Apr2002                                                 
   LULTRA =        F    use ultrasoft PP ?                                      
   IUNSCR =        1    unscreen: 0-lin 1-nonlin 2-no                           
   RPACOR =    2.200    partial core radius                                     
   POMASS =  126.904; ZVAL   =    7.000    mass and valenz                      
   RCORE  =    2.300    outmost cutoff radius                                   
   RWIGS  =    2.810; RWIGS  =    1.487    wigner-seitz radius (au A)           
   ENMAX  =  175.647; ENMIN  =  131.735 eV                                      
   ICORE  =        3    local potential                                         
   LCOR   =        T    correct aug charges                                     
   LPAW   =        T    paw PP                                                  
   EAUG   =  370.139                                                            
   DEXC   =    0.000                                                            
   RMAX   =    2.359    core radius for proj-oper                               
   RAUG   =    1.300    factor for augmentation sphere                          
   RDEP   =    2.392    radius for radial grids                                 
   RDEPT  =    2.170    core radius for aug-charge                              
                                                                                
   Atomic configuration                                                         
   13 entries                                                                   
     n  l   j            E        occ.                                          
     1  0  0.50    -32976.3739   2.0000                                         
     2  0  0.50     -5094.5933   2.0000                                         
     2  1  1.50     -4572.0131   6.0000                                         
     3  0  0.50     -1028.2813   2.0000                                         
     3  1  1.50      -859.0250   6.0000                                         
     3  2  2.50      -605.7620  10.0000                                         
     4  0  0.50      -180.5540   2.0000                                         
     4  1  1.50      -127.5306   6.0000                                         
     4  2  2.50       -50.2720  10.0000                                         
     5  0  0.50       -17.4058   2.0000                                         
     5  1  0.50        -7.0851   5.0000                                         
     5  2  1.50        -7.0750   0.0000                                         
     4  3  2.50        -7.0750   0.0000                                         
   Description                                                                  
     l       E           TYP  RCUT    TYP  RCUT                                 
     0    -17.4058016     23  2.300                                             
     0    -18.7663842     23  2.300                                             
     1     -7.0850686     23  2.300                                             
     1     -4.2150896     23  2.300                                             
     2     -7.0750295     23  2.300                                             
     3     -1.3605826     23  2.300                                             
  local pseudopotential read in
  partial core-charges read in
  partial kinetic energy density read in
  atomic valenz-charges read in
  non local Contribution for L=           0  read in
    real space projection operators read in
  non local Contribution for L=           0  read in
    real space projection operators read in
  non local Contribution for L=           1  read in
    real space projection operators read in
  non local Contribution for L=           1  read in
    real space projection operators read in
  non local Contribution for L=           2  read in
    real space projection operators read in
    PAW grid and wavefunctions read in
 
   number of l-projection  operators is LMAX  =           5
   number of lm-projection operators is LMMAX =          13
 

 ----------------------------------------------------------------------------- 
|                                                                             |
|  ADVICE TO THIS USER RUNNING 'VASP/VAMP'   (HEAR YOUR MASTER'S VOICE ...):  |
|                                                                             |
|      You have a (more or less) 'large supercell' and for larger cells       |
|      it might be more efficient to use real space projection opertators     |
|      So try LREAL= Auto  in the INCAR   file.                               |
|      Mind: At the moment your POTCAR file does not contain real space       |
|       projectors, and has to be modified,  BUT if you                       |
|      want to do an extremely  accurate calculation you might also keep the  |
|      reciprocal projection scheme          (i.e. LREAL=.FALSE.)             |
|                                                                             |
 ----------------------------------------------------------------------------- 

  PAW_PBE C 08Apr2002                   :
 energy of atom  1       EATOM= -147.1560
 kinetic energy error for atom=    0.0032 (will be added to EATOM!!)
  PAW_PBE N 08Apr2002                   :
 energy of atom  2       EATOM= -264.5486
 kinetic energy error for atom=    0.0061 (will be added to EATOM!!)
  PAW_PBE H 15Jun2001                   :
 energy of atom  3       EATOM=  -12.4884
 kinetic energy error for atom=    0.0002 (will be added to EATOM!!)
  PAW_PBE Pb_d 06Sep2000                :
 energy of atom  4       EATOM=-1661.6185
 kinetic energy error for atom=    0.0012 (will be added to EATOM!!)
  PAW_PBE I 08Apr2002                   :
 energy of atom  5       EATOM= -315.8678
 kinetic energy error for atom=    0.0003 (will be added to EATOM!!)
 
 
 POSCAR: C N H Pb I                              
  positions in direct lattice
  No initial velocities read in
 exchange correlation table for  LEXCH =        8
   RHO(1)=    0.500       N(1)  =     2000
   RHO(2)=  100.500       N(2)  =     4000
 


--------------------------------------------------------------------------------------------------------


 ion  position               nearest neighbor table
   1  0.198  0.250  0.227-  17 1.10  25 1.10  33 1.10   9 1.48
   2  0.696  0.250  0.231-  18 1.10  26 1.10  34 1.10  10 1.48
   3  0.196  0.750  0.231-  19 1.10  27 1.10  35 1.10  11 1.48
   4  0.698  0.750  0.227-  20 1.10  28 1.10  36 1.10  12 1.48
   5  0.198  0.250  0.727-  21 1.10  29 1.10  37 1.10  13 1.48
   6  0.696  0.250  0.731-  22 1.10  30 1.10  38 1.10  14 1.48
   7  0.196  0.750  0.731-  23 1.10  31 1.10  39 1.10  15 1.48
   8  0.698  0.750  0.727-  24 1.10  32 1.10  40 1.10  16 1.48
   9  0.305  0.250  0.274-  57 1.04  41 1.05  49 1.05   1 1.48
  10  0.804  0.250  0.274-  58 1.04  42 1.05  50 1.05   2 1.48
  11  0.304  0.750  0.274-  59 1.04  43 1.05  51 1.05   3 1.48
  12  0.805  0.750  0.274-  60 1.04  44 1.05  52 1.05   4 1.48
  13  0.305  0.250  0.774-  61 1.04  45 1.05  53 1.05   5 1.48
  14  0.804  0.250  0.774-  62 1.04  46 1.05  54 1.05   6 1.48
  15  0.304  0.750  0.774-  63 1.04  47 1.05  55 1.05   7 1.48
  16  0.805  0.750  0.774-  64 1.04  48 1.05  56 1.05   8 1.48
  17  0.208  0.250  0.141-   1 1.10
  18  0.702  0.250  0.145-   2 1.10
  19  0.202  0.750  0.145-   3 1.10
  20  0.708  0.750  0.141-   4 1.10
  21  0.208  0.250  0.641-   5 1.10
  22  0.702  0.250  0.645-   6 1.10
  23  0.202  0.750  0.645-   7 1.10
  24  0.708  0.750  0.641-   8 1.10
  25  0.155  0.322  0.253-   1 1.10
  26  0.654  0.322  0.258-   2 1.10
  27  0.154  0.822  0.258-   3 1.10
  28  0.655  0.822  0.253-   4 1.10
  29  0.155  0.322  0.753-   5 1.10
  30  0.654  0.322  0.758-   6 1.10
  31  0.154  0.822  0.758-   7 1.10
  32  0.655  0.822  0.753-   8 1.10
  33  0.155  0.177  0.253-   1 1.10
  34  0.654  0.177  0.258-   2 1.10
  35  0.154  0.677  0.258-   3 1.10
  36  0.655  0.677  0.253-   4 1.10
  37  0.155  0.177  0.753-   5 1.10
  38  0.654  0.177  0.758-   6 1.10
  39  0.154  0.677  0.758-   7 1.10
  40  0.655  0.677  0.753-   8 1.10
  41  0.349  0.318  0.252-   9 1.05
  42  0.847  0.318  0.250-  10 1.05
  43  0.347  0.818  0.250-  11 1.05
  44  0.849  0.818  0.252-  12 1.05
  45  0.349  0.318  0.752-  13 1.05
  46  0.847  0.318  0.750-  14 1.05
  47  0.347  0.818  0.750-  15 1.05
  48  0.849  0.818  0.752-  16 1.05
  49  0.349  0.182  0.252-   9 1.05
  50  0.848  0.182  0.250-  10 1.05
  51  0.348  0.682  0.250-  11 1.05
  52  0.849  0.682  0.252-  12 1.05
  53  0.349  0.182  0.752-  13 1.05
  54  0.848  0.182  0.750-  14 1.05
  55  0.348  0.682  0.750-  15 1.05
  56  0.849  0.682  0.752-  16 1.05
  57  0.302  0.250  0.356-   9 1.04
  58  0.804  0.250  0.356-  10 1.04
  59  0.304  0.750  0.356-  11 1.04
  60  0.802  0.750  0.356-  12 1.04
  61  0.302  0.250  0.856-  13 1.04
  62  0.804  0.250  0.856-  14 1.04
  63  0.304  0.750  0.856-  15 1.04
  64  0.802  0.750  0.856-  16 1.04
  65  0.472  0.500  0.489-  90 3.08  85 3.14  87 3.14  77 3.17  73 3.22  89 3.25
  66  0.972  0.500  0.489-  89 3.08  88 3.14  86 3.14  78 3.17  74 3.22  90 3.25
  67  0.472  1.000  0.489-  92 3.08  85 3.14  87 3.14  79 3.17  75 3.22  91 3.25
  68  0.972  0.000  0.489-  91 3.08  88 3.14  86 3.14  80 3.17  76 3.22  92 3.25
  69  0.472  0.500  0.989-  94 3.08  81 3.14  83 3.14  73 3.17  77 3.22  93 3.25
  70  0.972  0.500  0.989-  93 3.08  84 3.14  82 3.14  74 3.17  78 3.22  94 3.25
  71  0.472  1.000  0.989-  96 3.08  81 3.14  83 3.14  75 3.17  79 3.22  95 3.25
  72  0.972  0.000  0.989-  95 3.08  84 3.14  82 3.14  76 3.17  80 3.22  96 3.25
  73  0.455  0.500  0.238-  69 3.17  65 3.22
  74  0.955  0.500  0.238-  70 3.17  66 3.22
  75  0.455  1.000  0.238-  71 3.17  67 3.22
  76  0.955  0.000  0.238-  72 3.17  68 3.22
  77  0.455  0.500  0.738-  65 3.17  69 3.22
  78  0.955  0.500  0.738-  66 3.17  70 3.22
  79  0.455  1.000  0.738-  67 3.17  71 3.22
  80  0.955  0.000  0.738-  68 3.17  72 3.22
  81  0.453  0.250  0.011-  71 3.14  69 3.14
  82  0.946  0.250  0.012-  72 3.14  70 3.14
  83  0.446  0.750  0.012-  69 3.14  71 3.14
  84  0.953  0.750  0.011-  70 3.14  72 3.14
  85  0.453  0.250  0.511-  67 3.14  65 3.14
  86  0.946  0.250  0.512-  68 3.14  66 3.14
  87  0.446  0.750  0.512-  65 3.14  67 3.14
  88  0.953  0.750  0.511-  66 3.14  68 3.14
  89  0.216  0.496  0.461-  66 3.08  65 3.25
  90  0.716  0.504  0.461-  65 3.08  66 3.25
  91  0.216  0.004  0.461-  68 3.08  67 3.25
  92  0.716  0.996  0.461-  67 3.08  68 3.25
  93  0.216  0.496  0.961-  70 3.08  69 3.25
  94  0.716  0.504  0.961-  69 3.08  70 3.25
  95  0.216  0.004  0.961-  72 3.08  71 3.25
  96  0.716  0.996  0.961-  71 3.08  72 3.25
 
  LATTYP: Found a triclinic cell.
 ALAT       =    17.8238589327
 B/A-ratio  =     0.6989248630
 C/A-ratio  =     1.0156975818
 COS(alpha) =     0.0001355172
 COS(beta)  =     0.5146378593
 COS(gamma) =     0.6988877578
  
  Lattice vectors:
  
 A1 = (  -0.1406063366, -12.4576271275, -12.7466742118)
 A2 = (  -0.0011956322, -12.4575380825,   0.0007464135)
 A3 = ( -12.7162481321,  -0.0020049566, -12.8856194186)


Analysis of symmetry for initial positions (statically):
=====================================================================
 Subroutine PRICEL returns following result:
 
  LATTYP: Found a triclinic cell.
 ALAT       =     8.8502626515
 B/A-ratio  =     1.4075896561
 C/A-ratio  =     0.7202149489
 COS(alpha) =     0.0000518785
 COS(beta)  =     0.0156138721
 COS(gamma) =     0.7036188608
  
  Lattice vectors:
  
 A1 = (  -6.2878208978,   6.2278110854,  -0.0694726034)
 A2 = (   0.0011956322,  12.4575380825,  -0.0007464135)
 A3 = (  -0.0697053522,  -0.0000445225,  -6.3737103126)
 
   4 primitive cells build up your supercell.
 

 Routine SETGRP: Setting up the symmetry group for a 
 triclinic supercell.


 Subroutine GETGRP returns: Found  1 space group operations
 (whereof  1 operations were pure point group operations)
 out of a pool of  2 trial point group operations.


The static configuration has the point symmetry C_1 .


Analysis of symmetry for dynamics (positions and initial velocities):
=====================================================================
 Subroutine PRICEL returns following result:
 
  LATTYP: Found a triclinic cell.
 ALAT       =     8.8502626515
 B/A-ratio  =     1.4075896561
 C/A-ratio  =     0.7202149489
 COS(alpha) =     0.0000518785
 COS(beta)  =     0.0156138721
 COS(gamma) =     0.7036188608
  
  Lattice vectors:
  
 A1 = (  -6.2878208978,   6.2278110854,  -0.0694726034)
 A2 = (   0.0011956322,  12.4575380825,  -0.0007464135)
 A3 = (  -0.0697053522,  -0.0000445225,  -6.3737103126)
 
   4 primitive cells build up your supercell.
 

 Routine SETGRP: Setting up the symmetry group for a 
 triclinic supercell.


 Subroutine GETGRP returns: Found  1 space group operations
 (whereof  1 operations were pure point group operations)
 out of a pool of  2 trial point group operations.


The dynamic configuration has the point symmetry C_1 .


 Subroutine INISYM returns: Found  1 space group operations
 (whereof  1 operations are pure point group operations),
 and found     4 'primitive' translations

 
 
 KPOINTS: Automatic 3x3x3                         

Automatic generation of k-mesh.
Space group operators:
 irot       det(A)        alpha          n_x          n_y          n_z        tau_x        tau_y        tau_z
    1     1.000000     0.000000     1.000000     0.000000     0.000000     0.000000     0.000000     0.000000
 
 Subroutine IBZKPT returns following result:
 ===========================================
 
 Found     14 irreducible k-points:
 
 Following reciprocal coordinates:
            Coordinates               Weight
  0.000000  0.000000  0.000000      1.000000
  0.333333 -0.000000 -0.000000      2.000000
  0.000000  0.333333 -0.000000      2.000000
  0.333333  0.333333  0.000000      2.000000
 -0.333333  0.333333  0.000000      2.000000
  0.000000  0.000000  0.333333      2.000000
  0.333333  0.000000  0.333333      2.000000
 -0.333333  0.000000  0.333333      2.000000
  0.000000  0.333333  0.333333      2.000000
  0.333333  0.333333  0.333333      2.000000
 -0.333333  0.333333  0.333333      2.000000
  0.000000 -0.333333  0.333333      2.000000
  0.333333 -0.333333  0.333333      2.000000
 -0.333333 -0.333333  0.333333      2.000000
 
 Following cartesian coordinates:
            Coordinates               Weight
  0.000000  0.000000  0.000000      1.000000
  0.026507 -0.000003 -0.000290      2.000000
 -0.000004  0.026758 -0.000000      2.000000
  0.026503  0.026755 -0.000290      2.000000
 -0.026511  0.026760  0.000290      2.000000
 -0.000287  0.000002  0.026152      2.000000
  0.026220 -0.000001  0.025862      2.000000
 -0.026794  0.000004  0.026442      2.000000
 -0.000291  0.026759  0.026152      2.000000
  0.026215  0.026757  0.025862      2.000000
 -0.026798  0.026762  0.026442      2.000000
 -0.000283 -0.026756  0.026152      2.000000
  0.026224 -0.026759  0.025862      2.000000
 -0.026790 -0.026753  0.026442      2.000000
 
 
 Subroutine IBZKPT_HF returns following result:
 ==============================================
 
 Found     27 k-points in 1st BZ
 the following     27 k-points will be used (e.g. in the exchange kernel)
 Following reciprocal coordinates:   # in IRBZ
  0.000000  0.000000  0.000000    0.03703704   1 t-inv F
  0.333333 -0.000000 -0.000000    0.03703704   2 t-inv F
  0.000000  0.333333 -0.000000    0.03703704   3 t-inv F
  0.333333  0.333333  0.000000    0.03703704   4 t-inv F
 -0.333333  0.333333  0.000000    0.03703704   5 t-inv F
  0.000000  0.000000  0.333333    0.03703704   6 t-inv F
  0.333333  0.000000  0.333333    0.03703704   7 t-inv F
 -0.333333  0.000000  0.333333    0.03703704   8 t-inv F
  0.000000  0.333333  0.333333    0.03703704   9 t-inv F
  0.333333  0.333333  0.333333    0.03703704  10 t-inv F
 -0.333333  0.333333  0.333333    0.03703704  11 t-inv F
  0.000000 -0.333333  0.333333    0.03703704  12 t-inv F
  0.333333 -0.333333  0.333333    0.03703704  13 t-inv F
 -0.333333 -0.333333  0.333333    0.03703704  14 t-inv F
 -0.333333  0.000000  0.000000    0.03703704   2 t-inv T
 -0.000000 -0.333333  0.000000    0.03703704   3 t-inv T
 -0.333333 -0.333333 -0.000000    0.03703704   4 t-inv T
  0.333333 -0.333333 -0.000000    0.03703704   5 t-inv T
 -0.000000  0.000000 -0.333333    0.03703704   6 t-inv T
 -0.333333 -0.000000 -0.333333    0.03703704   7 t-inv T
  0.333333 -0.000000 -0.333333    0.03703704   8 t-inv T
 -0.000000 -0.333333 -0.333333    0.03703704   9 t-inv T
 -0.333333 -0.333333 -0.333333    0.03703704  10 t-inv T
  0.333333 -0.333333 -0.333333    0.03703704  11 t-inv T
 -0.000000  0.333333 -0.333333    0.03703704  12 t-inv T
 -0.333333  0.333333 -0.333333    0.03703704  13 t-inv T
  0.333333  0.333333 -0.333333    0.03703704  14 t-inv T


--------------------------------------------------------------------------------------------------------




 Dimension of arrays:
   k-points           NKPTS =     14   k-points in BZ     NKDIM =     27   number of bands    NBANDS=    256
   number of dos      NEDOS =    301   number of ions     NIONS =     96
   non local maximal  LDIM  =      6   non local SUM 2l+1 LMDIM =     18
   total plane-waves  NPLWV = ******
   max r-space proj   IRMAX =      1   max aug-charges    IRDMAX= 314103
   dimension x,y,z NGX =   112 NGY =  108 NGZ =  112
   dimension x,y,z NGXF=   224 NGYF=  216 NGZF=  224
   support grid    NGXF=   448 NGYF=  432 NGZF=  448
   ions per type =               8   8  48   8  24
 NGX,Y,Z   is equivalent  to a cutoff of  14.80, 14.41, 14.61 a.u.
 NGXF,Y,Z  is equivalent  to a cutoff of  29.61, 28.83, 29.21 a.u.


 I would recommend the setting:
   dimension x,y,z NGX =   109 NGY =  107 NGZ =  110
 SYSTEM =  MAPbI3-Cubic                            
 POSCAR =  C N H Pb I                              

 Startparameter for this run:
   NWRITE =      2    write-flag & timer
   PREC   = accura    normal or accurate (medium, high low for compatibility)
   ISTART =      0    job   : 0-new  1-cont  2-samecut
   ICHARG =      2    charge: 1-file 2-atom 10-const
   ISPIN  =      1    spin polarized calculation?
   LNONCOLLINEAR =      F non collinear calculations
   LSORBIT =      F    spin-orbit coupling
   INIWAV =      1    electr: 0-lowe 1-rand  2-diag
   LASPH  =      F    aspherical Exc in radial PAW
   METAGGA=      F    non-selfconsistent MetaGGA calc.

 Electronic Relaxation 1
   ENCUT  =  700.0 eV  51.45 Ry    7.17 a.u.  27.13 26.87 27.50*2*pi/ulx,y,z
   ENINI  =  700.0     initial cutoff
   ENAUG  =  644.9 eV  augmentation charge cutoff
   NELM   =     60;   NELMIN=  2; NELMDL= -5     # of ELM steps 
   EDIFF  = 0.1E-07   stopping-criterion for ELM
   LREAL  =      F    real-space projection
   NLSPLINE    = F    spline interpolate recip. space projectors
   LCOMPAT=      F    compatible to vasp.4.4
   GGA_COMPAT  = T    GGA compatible to vasp.4.4-vasp.4.6
   LMAXPAW     = -100 max onsite density
   LMAXMIX     =    2 max onsite mixed and CHGCAR
   VOSKOWN=      0    Vosko Wilk Nusair interpolation
   ROPT   =    0.00000   0.00000   0.00000   0.00000
   ROPT   =    0.00000
 Ionic relaxation
   EDIFFG = 0.1E-06   stopping-criterion for IOM
   NSW    =      0    number of steps for IOM
   NBLOCK =      1;   KBLOCK =      1    inner block; outer block 
   IBRION =     -1    ionic relax: 0-MD 1-quasi-New 2-CG
   NFREE  =      0    steps in history (QN), initial steepest desc. (CG)
   ISIF   =      2    stress and relaxation
   IWAVPR =     10    prediction:  0-non 1-charg 2-wave 3-comb
   ISYM   =      3    0-nonsym 1-usesym 2-fastsym
   LCORR  =      T    Harris-Foulkes like correction to forces

   POTIM  = 0.5000    time-step for ionic-motion
   TEIN   =    0.0    initial temperature
   TEBEG  =    0.0;   TEEND  =   0.0 temperature during run
   SMASS  =  -3.00    Nose mass-parameter (am)
   estimated Nose-frequenzy (Omega)   =  0.10E-29 period in steps =****** mass=  -0.362E-26a.u.
   SCALEE = 1.0000    scale energy and forces
   NPACO  =    256;   APACO  = 16.0  distance and # of slots for P.C.
   PSTRESS=    0.0 pullay stress

  Mass of Ions in am
   POMASS =  12.01 14.00  1.00207.20126.90
  Ionic Valenz
   ZVAL   =   4.00  5.00  1.00 14.00  7.00
  Atomic Wigner-Seitz radii
   RWIGS  =  -1.00 -1.00 -1.00 -1.00 -1.00
  virtual crystal weights 
   VCA    =   1.00  1.00  1.00  1.00  1.00
   NELECT =     400.0000    total number of electrons
   NUPDOWN=      -1.0000    fix difference up-down

 DOS related values:
   EMIN   =  10.00;   EMAX   =-10.00  energy-range for DOS
   EFERMI =   0.00
   ISMEAR =     0;   SIGMA  =   0.00  broadening in eV -4-tet -1-fermi 0-gaus

 Electronic relaxation 2 (details)
   IALGO  =     58    algorithm
   LDIAG  =      T    sub-space diagonalisation (order eigenvalues)
   LSUBROT=      F    optimize rotation matrix (better conditioning)
   TURBO    =      0    0=normal 1=particle mesh
   IRESTART =      0    0=no restart 2=restart with 2 vectors
   NREBOOT  =      0    no. of reboots
   NMIN     =      0    reboot dimension
   EREF     =   0.00    reference energy to select bands
   IMIX   =      4    mixing-type and parameters
     AMIX     =   0.40;   BMIX     =  1.00
     AMIX_MAG =   1.60;   BMIX_MAG =  1.00
     AMIN     =   0.10
     WC   =   100.;   INIMIX=   1;  MIXPRE=   1;  MAXMIX= -45

 Intra band minimization:
   WEIMIN = 0.0000     energy-eigenvalue tresh-hold
   EBREAK =  0.98E-11  absolut break condition
   DEPER  =   0.30     relativ break condition  

   TIME   =   0.40     timestep for ELM

  volume/ion in A,a.u.               =      20.80       140.38
  Fermi-wavevector in a.u.,A,eV,Ry     =   0.957863  1.810099 12.483376  0.917502
  Thomas-Fermi vector in A             =   2.086919
 
 Write flags
   LWAVE  =      F    write WAVECAR
   LCHARG =      F    write CHGCAR
   LVTOT  =      F    write LOCPOT, total local potential
   LVHAR  =      F    write LOCPOT, Hartree potential only
   LELF   =      F    write electronic localiz. function (ELF)
   LORBIT =      0    0 simple, 1 ext, 2 COOP (PROOUT)


 Dipole corrections
   LMONO  =      F    monopole corrections only (constant potential shift)
   LDIPOL =      F    correct potential (dipole corrections)
   IDIPOL =      0    1-x, 2-y, 3-z, 4-all directions 
   EPSILON=  1.0000000 bulk dielectric constant

 Core level calculations are selected ICORELEVEL =  1
 Exchange correlation treatment:
   GGA     =    PE    GGA type
   LEXCH   =     8    internal setting for exchange type
   VOSKOWN=      0    Vosko Wilk Nusair interpolation
   EXXOEP  =     0    0=HF, 1=EXX-LHF (local Hartree Fock) 2=EXX OEP
   LHFCALC =     T    Hartree Fock is set to
   LSYMGRAD=     F    symmetrize gradient (conserves proper symmetry)
   PRECFOCK=fast      Normal, Fast or Accurate (Low or Medium for compatibility)
   LRHFCALC=     F    long range Hartree Fock
   LRSCOR  =     F    long range correlation only (use DFT for short range part)
   LTHOMAS =     F    Thomas Fermi screening in HF
   LMODELHF=     F    short range full HF, long range fraction AEXX
   ENCUT4O =  -1.0   cutoff for four orbital integrals eV
   LMAXFOCK=     4    L truncation for augmentation on plane wave grid
   LMAXFOCKAE=  -1    L truncation for all-electron charge restoration on plane wave grid
   NMAXFOCKAE=   1    number of basis functions for all-electron charge restoration
   LFOCKAEDFT=     F  apply the AE augmentation even for DFT
   NKREDX  =     1    reduce k-point grid by
   NKREDY  =     1    reduce k-point grid by
   NKREDZ  =     1    reduce k-point grid by
   SHIFTRED=     F    shift reduced grid of Gamma
   HFKIDENT=     F    idential grid for each k-point
   ODDONLY =     F    use only odd q-grid points
   EVENONLY=     F    use only even q-grid points
   HFALPHA =   -1.0000 decay constant for conv. correction
   MCALPHA =    0.0000 extent of test-charge in conv. correction in multipole expansion
   AEXX    =    0.2500 exact exchange contribution
   HFSCREEN=    0.2070 screening length (either q_TF or 0.3 A-1)
   HFSCREENC=   0.2070 screening length for correlation (either q_TF or 0.3 A-1)
   HFRCUT  =    0.0000 spherical cutoff for potential kernel
   ALDAX   =    0.7500 LDA exchange part
   AGGAX   =    0.7500 GGA exchange part
   ALDAC   =    1.0000 LDA correlation
   AGGAC   =    1.0000 GGA correlation
   NBANDSGWLOW=     1    first orbital included in HF term
   ENCUTFOCK=  -1.0 apply spherical cutoff to Coloumb kernel
 Linear response parameters
   LEPSILON=     F    determine dielectric tensor
   LRPA    =     F    only Hartree local field effects (RPA)
   LNABLA  =     F    use nabla operator in PAW spheres
   LVEL    =     F    velocity operator in full k-point grid
   LINTERFAST=   F  fast interpolation
   KINTER  =     0    interpolate to denser k-point grid
   CSHIFT  =0.1000    complex shift for real part using Kramers Kronig
   OMEGAMAX=  -1.0    maximum frequency
   DEG_THRESHOLD= 0.2000000E-02 threshold for treating states as degnerate
   RTIME   =    0.100 relaxation time in fs

 Orbital magnetization related:
   ORBITALMAG=     F  switch on orbital magnetization
   LCHIMAG   =     F  perturbation theory with respect to B field
   DQ        =  0.001000  dq finite difference perturbation B field



--------------------------------------------------------------------------------------------------------


 Static calculation
 charge density and potential will be updated during run
 non-spin polarized calculation
 Conjugate gradient for all bands (Freysoldt, et al. PRB 79, 241103 (2009))
 preconditioned conjugated gradient                                        
 perform sub-space diagonalisation
    before iterative eigenvector-optimisation
 modified Broyden-mixing scheme, WC =      100.0
 initial mixing is a Kerker type mixing with AMIX =  0.4000 and BMIX =      1.0000
 Hartree-type preconditioning will be used
 using additional bands           56
 reciprocal scheme for non local part
 use partial core corrections
 no Harris-corrections to forces 
 use gradient corrections 
 use of overlap-Matrix (Vanderbilt PP)
 Gauss-broadening in eV      SIGMA  =   0.00


--------------------------------------------------------------------------------------------------------


  energy-cutoff  :      700.00
  volume of cell :     1996.98
      direct lattice vectors                 reciprocal lattice vectors
    12.576837428  0.001915912  0.138198793     0.079520802 -0.000007684 -0.000869670
     0.001195632 12.457538083 -0.000746413    -0.000012224  0.080272684 -0.000000427
     0.139410704  0.000089045 12.747420625    -0.000862111  0.000004784  0.078456671

  length of vectors
    12.577596840 12.457538162 12.748182927     0.079525558  0.080272685  0.078461408


 
 k-points in units of 2pi/SCALE and weight: Automatic 3x3x3                         
   0.00000000  0.00000000  0.00000000       0.037
   0.02650693 -0.00000256 -0.00028989       0.074
  -0.00000407  0.02675756 -0.00000014       0.074
   0.02650286  0.02675500 -0.00029003       0.074
  -0.02651101  0.02676012  0.00028975       0.074
  -0.00028737  0.00000159  0.02615222       0.074
   0.02621956 -0.00000097  0.02586233       0.074
  -0.02679430  0.00000416  0.02644211       0.074
  -0.00029144  0.02675916  0.02615208       0.074
   0.02621549  0.02675659  0.02586219       0.074
  -0.02679838  0.02676172  0.02644197       0.074
  -0.00028330 -0.02675597  0.02615237       0.074
   0.02622364 -0.02675853  0.02586248       0.074
  -0.02679023 -0.02675341  0.02644226       0.074
 
 k-points in reciprocal lattice and weights: Automatic 3x3x3                         
   0.00000000  0.00000000  0.00000000       0.037
   0.33333333 -0.00000000 -0.00000000       0.074
   0.00000000  0.33333333 -0.00000000       0.074
   0.33333333  0.33333333  0.00000000       0.074
  -0.33333333  0.33333333  0.00000000       0.074
   0.00000000  0.00000000  0.33333333       0.074
   0.33333333  0.00000000  0.33333333       0.074
  -0.33333333  0.00000000  0.33333333       0.074
   0.00000000  0.33333333  0.33333333       0.074
   0.33333333  0.33333333  0.33333333       0.074
  -0.33333333  0.33333333  0.33333333       0.074
   0.00000000 -0.33333333  0.33333333       0.074
   0.33333333 -0.33333333  0.33333333       0.074
  -0.33333333 -0.33333333  0.33333333       0.074
 
 position of ions in fractional coordinates (direct lattice) 
   0.19810925  0.24991292  0.22717858
   0.69587901  0.24990363  0.23065213
   0.19587901  0.74990363  0.23065213
   0.69810925  0.74991292  0.22717858
   0.19810925  0.24991292  0.72717858
   0.69587901  0.24990363  0.73065213
   0.19587901  0.74990363  0.73065213
   0.69810925  0.74991292  0.72717858
   0.30484409  0.25000717  0.27398253
   0.80423035  0.25000011  0.27378606
   0.30423035  0.75000011  0.27378606
   0.80484409  0.75000717  0.27398253
   0.30484409  0.25000717  0.77398253
   0.80423035  0.25000011  0.77378606
   0.30423035  0.75000011  0.77378606
   0.80484409  0.75000717  0.77398253
   0.20769904  0.24982095  0.14125737
   0.70245129  0.24982124  0.14451989
   0.20245129  0.74982124  0.14451989
   0.70769904  0.74982095  0.14125737
   0.20769904  0.24982095  0.64125737
   0.70245129  0.24982124  0.64451989
   0.20245129  0.74982124  0.64451989
   0.70769904  0.74982095  0.64125737
   0.15503480  0.32236953  0.25308191
   0.65364082  0.32233484  0.25794873
   0.15364082  0.82233484  0.25794873
   0.65503480  0.82236953  0.25308191
   0.15503480  0.32236953  0.75308191
   0.65364082  0.32233484  0.75794873
   0.15364082  0.82233484  0.75794873
   0.65503480  0.82236953  0.75308191
   0.15513274  0.17747341  0.25322552
   0.65375292  0.17747874  0.25807590
   0.15375292  0.67747874  0.25807590
   0.65513274  0.67747341  0.25322552
   0.15513274  0.17747341  0.75322552
   0.65375292  0.17747874  0.75807590
   0.15375292  0.67747874  0.75807590
   0.65513274  0.67747341  0.75322552
   0.34879453  0.31791147  0.25158561
   0.84747462  0.31783709  0.24992737
   0.34747462  0.81783709  0.24992737
   0.84879453  0.81791147  0.25158561
   0.34879453  0.31791147  0.75158561
   0.84747462  0.31783709  0.74992737
   0.34747462  0.81783709  0.74992737
   0.84879453  0.81791147  0.75158561
   0.34885838  0.18206930  0.25172860
   0.84755222  0.18214048  0.25005320
   0.34755222  0.68214048  0.25005320
   0.84885838  0.68206930  0.25172860
   0.34885838  0.18206930  0.75172860
   0.84755222  0.18214048  0.75005320
   0.34755222  0.68214048  0.75005320
   0.84885838  0.68206930  0.75172860
   0.30191780  0.25010316  0.35565893
   0.80442235  0.25008388  0.35555956
   0.30442235  0.75008388  0.35555956
   0.80191780  0.75010316  0.35565893
   0.30191780  0.25010316  0.85565893
   0.80442235  0.25008388  0.85555956
   0.30442235  0.75008388  0.85555956
   0.80191780  0.75010316  0.85565893
   0.47244275  0.50017163  0.48881120
   0.97244080  0.49980796  0.48881169
   0.47244080  0.99980796  0.48881169
   0.97244275  0.00017163  0.48881120
   0.47244275  0.50017163  0.98881120
   0.97244080  0.49980796  0.98881169
   0.47244080  0.99980796  0.98881169
   0.97244275  0.00017163  0.98881120
   0.45474638  0.50008787  0.23757217
   0.95474096  0.49989423  0.23757332
   0.45474096  0.99989423  0.23757332
   0.95474638  0.00008787  0.23757217
   0.45474638  0.50008787  0.73757217
   0.95474096  0.49989423  0.73757332
   0.45474096  0.99989423  0.73757332
   0.95474638  0.00008787  0.73757217
   0.45313824  0.24997832  0.01117396
   0.94613264  0.24997970  0.01249048
   0.44613264  0.74997970  0.01249048
   0.95313824  0.74997832  0.01117396
   0.45313824  0.24997832  0.51117396
   0.94613264  0.24997970  0.51249048
   0.44613264  0.74997970  0.51249048
   0.95313824  0.74997832  0.51117396
   0.21617228  0.49581661  0.46123970
   0.71617059  0.50417827  0.46123970
   0.21617059  0.00417827  0.46123970
   0.71617228  0.99581661  0.46123970
   0.21617228  0.49581661  0.96123970
   0.71617059  0.50417827  0.96123970
   0.21617059  0.00417827  0.96123970
   0.71617228  0.99581661  0.96123970
 
 position of ions in cartesian coordinates  (Angst):
   2.52355780  3.11369957  2.92313284
   8.78441136  3.11453771  3.03620281
   2.49659047  9.34234880  2.96673020
   8.81257433  9.34342657  2.99185903
   2.59326315  3.11374409  9.29684315
   8.85411672  3.11458223  9.40991312
   2.56629582  9.34239332  9.34044052
   8.88227968  9.34347109  9.36556934
   3.87246957  3.11508227  3.53451308
  10.15314196  3.11595114  3.60102311
   3.86532106  9.34376223  3.53155051
  10.16148610  9.34480927  3.60323927
   3.94217493  3.11512679  9.90822340
  10.22284731  3.11599566  9.97473343
   3.93502641  9.34380675  9.90526082
  10.23119146  9.34485379  9.97694959
   2.63218859  3.11256449  1.82918435
   8.85506200  3.11351637  1.93914723
   2.56724110  9.34132745  1.86967462
   8.92120512  9.34229149  1.89791054
   2.70189394  3.11260901  8.20289466
   8.92476735  3.11356089  8.31285754
   2.63694645  9.34137197  8.24338494
   8.99091047  9.34233601  8.27162085
   1.98551518  4.01625032  3.24732653
   8.25708051  4.01677382  3.37827275
   1.96925962 10.24458491  3.30880015
   8.27453171 10.24597731  3.31605272
   2.05522053  4.01629484  9.62103684
   8.32678587  4.01681835  9.75198306
   2.03896497 10.24462943  9.68251046
   8.34423706 10.24602184  9.68976303
   1.98659383  2.21120153  3.24927887
   8.25833499  2.21222364  3.38001740
   1.97051409  8.44003472  3.31054479
   8.27561036  8.44092853  3.31800506
   2.05629918  2.21124606  9.62298918
   8.32804034  2.21226816  9.75372771
   2.04021944  8.44007924  9.68425510
   8.34531571  8.44097305  9.69171537
   4.42218597  3.96108494  3.25503333
  10.69377311  3.96111363  3.30281202
   4.40595221 10.18892472  3.23333942
  10.71120250 10.19081194  3.32375952
   4.49189132  3.96112946  9.62874364
  10.76347846  3.96115815  9.67652233
   4.47565756 10.18896924  9.60704973
  10.78090785 10.19085646  9.69746983
   4.42284649  2.26882599  3.25696623
  10.69460435  2.27066805  3.30452808
   4.40678345  8.49847913  3.23505548
  10.71186302  8.49855299  3.32569242
   4.49255184  2.26887052  9.63067654
  10.76430970  2.27071257  9.67823839
   4.47648880  8.49852365  9.60876579
  10.78156837  8.49859751  9.69940273
   3.84705279  3.11627978  4.57527193
  10.16695688  3.11700235  4.64345084
   3.87913598  9.34481343  4.57397824
  10.13606932  9.34600677  4.64399812
   3.91675814  3.11632430 10.94898224
  10.23666223  3.11704687 11.01716115
   3.94884133  9.34485795 10.94768855
  10.20577467  9.34605130 11.01770843
   6.01057924  6.23185586  6.29599972
  12.29897300  6.22828328  6.36510529
   6.01115210 12.45609436  6.29563269
  12.29840014  0.00404478  6.36547232
   6.08028459  6.23190039 12.66971003
  12.36867835  6.22832780 12.73881561
   6.08085745 12.45613889 12.66934300
  12.36810549  0.00408930 12.73918263
   5.75298937  6.23075612  3.09090445
  12.04133985  6.22930172  3.16001794
   5.75351895 12.45711281  3.09054533
  12.04081026  0.00294504  3.16037706
   5.82269472  6.23080064  9.46461477
  12.11104520  6.22934624  9.53372825
   5.82322431 12.45715733  9.46425565
  12.11051562  0.00298956  9.53408737
   5.70090268  3.11498359  0.20487574
  11.90139653  3.11594548  0.28978915
   5.61357563  9.34375657  0.22031655
  11.98991921  9.34471059  0.27360193
   5.77060803  3.11502811  6.57858605
  11.97110188  3.11599000  6.66349946
   5.68328098  9.34380109  6.59402686
  12.05962456  9.34475511  6.64731224
   2.78365824  6.17710948  5.90912115
   9.07206568  6.28223316  5.97821408
   2.78304915  0.05250616  5.90948789
   9.07267477 12.40683648  5.97784734
   2.85336359  6.17715400 12.28283146
   9.14177103  6.28227768 12.35192440
   2.85275450  0.05255068 12.28319821
   9.14238012 12.40688100 12.35155765
 


--------------------------------------------------------------------------------------------------------


 k-point  1 :   0.0000 0.0000 0.0000  plane waves:   84007
 k-point  2 :   0.3333-0.0000-0.0000  plane waves:   84003
 k-point  3 :   0.0000 0.3333-0.0000  plane waves:   83995
 k-point  4 :   0.3333 0.3333 0.0000  plane waves:   84018
 k-point  5 :  -0.3333 0.3333 0.0000  plane waves:   84019
 k-point  6 :   0.0000 0.0000 0.3333  plane waves:   83960
 k-point  7 :   0.3333 0.0000 0.3333  plane waves:   83937
 k-point  8 :  -0.3333 0.0000 0.3333  plane waves:   83982
 k-point  9 :   0.0000 0.3333 0.3333  plane waves:   83984
 k-point 10 :   0.3333 0.3333 0.3333  plane waves:   84012
 k-point 11 :  -0.3333 0.3333 0.3333  plane waves:   83970
 k-point 12 :   0.0000-0.3333 0.3333  plane waves:   83977
 k-point 13 :   0.3333-0.3333 0.3333  plane waves:   84013
 k-point 14 :  -0.3333-0.3333 0.3333  plane waves:   83973

 maximum and minimum number of plane-waves per node :      7062     6951

 maximum number of plane-waves:     84019
 maximum index in each direction: 
   IXMAX=   27   IYMAX=   27   IZMAX=   27
   IXMIN=  -27   IYMIN=  -27   IZMIN=  -27

 NGX is ok and might be reduce to 110
 WARNING: aliasing errors must be expected set NGY to 110 to avoid them
 NGZ is ok and might be reduce to 110
 aliasing errors are usually negligible using standard VASP settings
 and one can safely disregard these warnings

 parallel 3D FFT for wavefunctions:
    minimum data exchange during FFTs selected (reduces bandwidth)
 parallel 3D FFT for charge:
    minimum data exchange during FFTs selected (reduces bandwidth)


 FFT grid for exact exchange (Hartree Fock) 
  NGX = 56; NGY = 56; NGZ = 60

 
 Radii for the augmentation spheres in the non-local exchange
 for species   1 augmentation radius   0.944 (default was   0.699)
       energy cutoff for augmentation   2800.0
 for species   2 augmentation radius   0.957 (default was   0.709)
       energy cutoff for augmentation   2800.0
 for species   3 augmentation radius   0.702 (default was   0.520)
       energy cutoff for augmentation   2800.0
 for species   4 augmentation radius   1.558 (default was   1.154)
       energy cutoff for augmentation   2800.0
 for species   5 augmentation radius   1.603 (default was   1.188)
       energy cutoff for augmentation   2800.0

 real space projection operators:
  total allocation   :      10811.47 KBytes
  max/ min on nodes  :       1226.20        478.52

 Maximum index for augmentation-charges in exchange          235
  SETUP_FOCK is finished

 total amount of memory used by VASP on root node   222733. kBytes
========================================================================

   base      :      30000. kBytes
   nonl-proj :      82891. kBytes
   fftplans  :      15020. kBytes
   grid      :      12652. kBytes
   one-center:        124. kBytes
   HF        :        259. kBytes
   nonlr-proj:       4201. kBytes
   wavefun   :      77586. kBytes
 
     INWAV:  cpu time    0.0000: real time    0.0000
 Broyden mixing: mesh for mixing (old mesh)
   NGX = 55   NGY = 53   NGZ = 55
  (NGX  =224   NGY  =216   NGZ  =224)
  gives a total of 160325 points

 initial charge density was supplied:
 charge density of overlapping atoms calculated
 number of electron     400.0000000 magnetization 
 keeping initial charge density in first step


--------------------------------------------------------------------------------------------------------


 Maximum index for augmentation-charges         5207 (set IRDMAX)


--------------------------------------------------------------------------------------------------------


 First call to EWALD:  gamma=   0.141
 Maximum number of real-space cells 3x 3x 3
 Maximum number of reciprocal cells 3x 3x 3

 FEWALD executed in parallel
    FEWALD:  cpu time    0.0440: real time    0.0407


----------------------------------------- Iteration    1(   1)  ---------------------------------------


    POTLOK:  cpu time    0.2640: real time    0.2649
    SETDIJ:  cpu time    0.6240: real time    0.6220
    TRIAL :  cpu time    4.5963: real time    4.6048
    CORREC:  cpu time    0.0040: real time    0.0018
    --------------------------------------------
      LOOP:  cpu time    5.5243: real time    5.5532

 eigenvalue-minimisations  : 11744
 total energy-change (2. order) : 0.3458769E+05  (-0.1142080E+06)
 number of electron     400.0000000 magnetization 
 augmentation part      400.0000000 magnetization 

 Free energy of the ion-electron system (eV)
  ---------------------------------------------------
  alpha Z        PSCENC =       370.05370877
  Ewald energy   TEWEN  =    -15505.55135322
  -Hartree energ DENC   =     -8138.87333221
  -exchange      EXHF   =         0.00000000
  -V(xc)+E(xc)   XCENC  =       254.80403733
  PAW double counting   =     20708.16285019   -20051.16882790
  entropy T*S    EENTRO =        -0.00000000
  eigenvalues    EBANDS =     32269.84134092
  atomic energy  EATOM  =     24680.42500649
  ---------------------------------------------------
  free energy    TOTEN  =     34587.69343036 eV

  energy without entropy =    34587.69343036  energy(sigma->0) =    34587.69343036
  exchange ACFDT corr.  =         0.00000000  see jH, gK, PRB 81, 115126


--------------------------------------------------------------------------------------------------------




----------------------------------------- Iteration    1(   2)  ---------------------------------------


    TRIAL :  cpu time    3.6042: real time    3.6080
    CORREC:  cpu time    0.0040: real time    0.0028
    --------------------------------------------
      LOOP:  cpu time    3.6082: real time    3.7310

 eigenvalue-minimisations  :  8624
 total energy-change (2. order) :-0.2599484E+05  (-0.2526091E+05)
 number of electron     400.0000000 magnetization 
 augmentation part      400.0000000 magnetization 

 Free energy of the ion-electron system (eV)
  ---------------------------------------------------
  alpha Z        PSCENC =       370.05370877
  Ewald energy   TEWEN  =    -15505.55135322
  -Hartree energ DENC   =     -8138.87333221
  -exchange      EXHF   =         0.00000000
  -V(xc)+E(xc)   XCENC  =       254.80403733
  PAW double counting   =     20708.16285019   -20051.16882790
  entropy T*S    EENTRO =        -0.00004179
  eigenvalues    EBANDS =      6275.00592490
  atomic energy  EATOM  =     24680.42500649
  ---------------------------------------------------
  free energy    TOTEN  =      8592.85797255 eV

  energy without entropy =     8592.85801434  energy(sigma->0) =     8592.85799345
  exchange ACFDT corr.  =         0.00000000  see jH, gK, PRB 81, 115126


--------------------------------------------------------------------------------------------------------




----------------------------------------- Iteration    1(   3)  ---------------------------------------


    TRIAL :  cpu time    3.6962: real time    3.6977
    CORREC:  cpu time    0.0000: real time    0.0028
    --------------------------------------------
      LOOP:  cpu time    3.7002: real time    3.7230

 eigenvalue-minimisations  :  9024
 total energy-change (2. order) :-0.6803847E+04  (-0.6699567E+04)
 number of electron     400.0000000 magnetization 
 augmentation part      400.0000000 magnetization 

 Free energy of the ion-electron system (eV)
  ---------------------------------------------------
  alpha Z        PSCENC =       370.05370877
  Ewald energy   TEWEN  =    -15505.55135322
  -Hartree energ DENC   =     -8138.87333221
  -exchange      EXHF   =         0.00000000
  -V(xc)+E(xc)   XCENC  =       254.80403733
  PAW double counting   =     20708.16285019   -20051.16882790
  entropy T*S    EENTRO =        -0.00002451
  eigenvalues    EBANDS =      -528.84137847
  atomic energy  EATOM  =     24680.42500649
  ---------------------------------------------------
  free energy    TOTEN  =      1789.01068646 eV

  energy without entropy =     1789.01071098  energy(sigma->0) =     1789.01069872
  exchange ACFDT corr.  =         0.00000000  see jH, gK, PRB 81, 115126


--------------------------------------------------------------------------------------------------------




----------------------------------------- Iteration    1(   4)  ---------------------------------------


    TRIAL :  cpu time    3.9842: real time    3.9886
    CORREC:  cpu time    0.0000: real time    0.0009
    --------------------------------------------
      LOOP:  cpu time    3.9882: real time    4.0116

 eigenvalue-minimisations  :  9888
 total energy-change (2. order) :-0.1350340E+04  (-0.1295609E+04)
 number of electron     400.0000000 magnetization 
 augmentation part      400.0000000 magnetization 

 Free energy of the ion-electron system (eV)
  ---------------------------------------------------
  alpha Z        PSCENC =       370.05370877
  Ewald energy   TEWEN  =    -15505.55135322
  -Hartree energ DENC   =     -8138.87333221
  -exchange      EXHF   =         0.00000000
  -V(xc)+E(xc)   XCENC  =       254.80403733
  PAW double counting   =     20708.16285019   -20051.16882790
  entropy T*S    EENTRO =        -0.00000000
  eigenvalues    EBANDS =     -1879.18114868
  atomic energy  EATOM  =     24680.42500649
  ---------------------------------------------------
  free energy    TOTEN  =       438.67094077 eV

  energy without entropy =      438.67094077  energy(sigma->0) =      438.67094077
  exchange ACFDT corr.  =         0.00000000  see jH, gK, PRB 81, 115126


--------------------------------------------------------------------------------------------------------




----------------------------------------- Iteration    1(   5)  ---------------------------------------


    TRIAL :  cpu time    3.9162: real time    3.9171
    CORREC:  cpu time    0.0000: real time    0.0014
    CHARGE:  cpu time    0.9161: real time    0.9137
    --------------------------------------------
      LOOP:  cpu time    4.8323: real time    4.8509

 eigenvalue-minimisations  :  9456
 total energy-change (2. order) :-0.1643262E+03  (-0.1617488E+03)
 number of electron     400.0000000 magnetization 
 augmentation part       12.9030489 magnetization 

 Free energy of the ion-electron system (eV)
  ---------------------------------------------------
  alpha Z        PSCENC =       370.05370877
  Ewald energy   TEWEN  =    -15505.55135322
  -Hartree energ DENC   =     -8138.87333221
  -exchange      EXHF   =         0.00000000
  -V(xc)+E(xc)   XCENC  =       254.80403733
  PAW double counting   =     20708.16285019   -20051.16882790
  entropy T*S    EENTRO =        -0.00000000
  eigenvalues    EBANDS =     -2043.50734069
  atomic energy  EATOM  =     24680.42500649
  ---------------------------------------------------
  free energy    TOTEN  =       274.34474875 eV

  energy without entropy =      274.34474875  energy(sigma->0) =      274.34474875
  exchange ACFDT corr.  =         0.00000000  see jH, gK, PRB 81, 115126


--------------------------------------------------------------------------------------------------------




----------------------------------------- Iteration    1(   6)  ---------------------------------------


    POTLOK:  cpu time    0.2800: real time    0.2785
    SETDIJ:  cpu time    0.6440: real time    0.6459
    TRIAL :  cpu time  290.0501: real time  290.3090
    CORREC:  cpu time  290.1181: real time  290.2999
    CHARGE:  cpu time    0.9121: real time    0.9127
    --------------------------------------------
      LOOP:  cpu time  582.0044: real time  582.4550

 eigenvalue-minimisations  :     0
 total energy-change (2. order) :-0.7239703E+03  (-0.1832412E+02)
 number of electron     400.0000000 magnetization 
 augmentation part       13.2771499 magnetization 

 Free energy of the ion-electron system (eV)
  ---------------------------------------------------
  alpha Z        PSCENC =       370.05370877
  Ewald energy   TEWEN  =    -15505.55135322
  -Hartree energ DENC   =     -8213.11575476
  -exchange      EXHF   =       753.79961594
  -V(xc)+E(xc)   XCENC  =       273.99101524
  PAW double counting   =     55049.92999260   -54381.72740245
  entropy T*S    EENTRO =         0.00000000
  eigenvalues    EBANDS =     -3477.43034941
  atomic energy  EATOM  =     24680.42500649
  ---------------------------------------------------
  free energy    TOTEN  =      -449.62552081 eV

  energy without entropy =     -449.62552081  energy(sigma->0) =     -449.62552081
  exchange ACFDT corr.  =         0.00000000  see jH, gK, PRB 81, 115126


--------------------------------------------------------------------------------------------------------




----------------------------------------- Iteration    1(   7)  ---------------------------------------


    POTLOK:  cpu time    0.2640: real time    0.2647
    SETDIJ:  cpu time    0.6360: real time    0.6355
    TRIAL :  cpu time  289.7021: real time  289.9082
    CORREC:  cpu time  290.0261: real time  290.2095
    CHARGE:  cpu time    0.8801: real time    0.8818
    --------------------------------------------
      LOOP:  cpu time  581.5083: real time  581.9239

 eigenvalue-minimisations  :     0
 total energy-change (2. order) :-0.1826096E+02  (-0.7526279E+01)
 number of electron     400.0000000 magnetization 
 augmentation part        9.8411830 magnetization 

 Free energy of the ion-electron system (eV)
  ---------------------------------------------------
  alpha Z        PSCENC =       370.05370877
  Ewald energy   TEWEN  =    -15505.55135322
  -Hartree energ DENC   =     -8484.49896353
  -exchange      EXHF   =       763.07385637
  -V(xc)+E(xc)   XCENC  =       280.48277014
  PAW double counting   =     49280.73523585   -48609.84228316
  entropy T*S    EENTRO =         0.00000000
  eigenvalues    EBANDS =     -3242.76445897
  atomic energy  EATOM  =     24680.42500649
  ---------------------------------------------------
  free energy    TOTEN  =      -467.88648126 eV

  energy without entropy =     -467.88648126  energy(sigma->0) =     -467.88648126
  exchange ACFDT corr.  =         0.00000000  see jH, gK, PRB 81, 115126


--------------------------------------------------------------------------------------------------------




----------------------------------------- Iteration    1(   8)  ---------------------------------------


    POTLOK:  cpu time    0.2960: real time    0.2978
    SETDIJ:  cpu time    0.6440: real time    0.6413
    TRIAL :  cpu time  289.9341: real time  290.1302
    CORREC:  cpu time  290.2461: real time  290.4324
    CHARGE:  cpu time    0.8881: real time    0.8879
    --------------------------------------------
      LOOP:  cpu time  582.0124: real time  582.4198

 eigenvalue-minimisations  :     0
 total energy-change (2. order) :-0.7526033E+01  (-0.2698891E+01)
 number of electron     400.0000000 magnetization 
 augmentation part        9.5221289 magnetization 

 Free energy of the ion-electron system (eV)
  ---------------------------------------------------
  alpha Z        PSCENC =       370.05370877
  Ewald energy   TEWEN  =    -15505.55135322
  -Hartree energ DENC   =     -8410.53909846
  -exchange      EXHF   =       766.14275931
  -V(xc)+E(xc)   XCENC  =       278.63462112
  PAW double counting   =     43410.98781140   -42747.81038777
  entropy T*S    EENTRO =        -0.00000000
  eigenvalues    EBANDS =     -3317.75558147
  atomic energy  EATOM  =     24680.42500649
  ---------------------------------------------------
  free energy    TOTEN  =      -475.41251385 eV

  energy without entropy =     -475.41251385  energy(sigma->0) =     -475.41251385
  exchange ACFDT corr.  =         0.00000000  see jH, gK, PRB 81, 115126


--------------------------------------------------------------------------------------------------------




----------------------------------------- Iteration    1(   9)  ---------------------------------------


    POTLOK:  cpu time    0.2840: real time    0.2874
    SETDIJ:  cpu time    0.6400: real time    0.6376
    TRIAL :  cpu time  289.7821: real time  289.9806
    CORREC:  cpu time  290.1541: real time  290.3377
    CHARGE:  cpu time    0.8801: real time    0.8832
    --------------------------------------------
      LOOP:  cpu time  581.7444: real time  582.1508

 eigenvalue-minimisations  :     0
 total energy-change (2. order) :-0.2699244E+01  (-0.8571093E+00)
 number of electron     400.0000000 magnetization 
 augmentation part        9.6068711 magnetization 

 Free energy of the ion-electron system (eV)
  ---------------------------------------------------
  alpha Z        PSCENC =       370.05370877
  Ewald energy   TEWEN  =    -15505.55135322
  -Hartree energ DENC   =     -8457.73812078
  -exchange      EXHF   =       769.28323167
  -V(xc)+E(xc)   XCENC  =       280.20071091
  PAW double counting   =     38339.08958252   -37676.98685895
  entropy T*S    EENTRO =         0.00000000
  eigenvalues    EBANDS =     -3276.88766530
  atomic energy  EATOM  =     24680.42500649
  ---------------------------------------------------
  free energy    TOTEN  =      -478.11175791 eV

  energy without entropy =     -478.11175791  energy(sigma->0) =     -478.11175791
  exchange ACFDT corr.  =         0.00000000  see jH, gK, PRB 81, 115126


--------------------------------------------------------------------------------------------------------




----------------------------------------- Iteration    1(  10)  ---------------------------------------


    POTLOK:  cpu time    0.2720: real time    0.2722
    SETDIJ:  cpu time    0.6240: real time    0.6234
    TRIAL :  cpu time  289.9501: real time  290.1502
    CORREC:  cpu time  290.2501: real time  290.4392
    CHARGE:  cpu time    0.9001: real time    0.9006
    --------------------------------------------
      LOOP:  cpu time  582.0044: real time  582.4148

 eigenvalue-minimisations  :     0
 total energy-change (2. order) :-0.8562424E+00  (-0.2163779E+00)
 number of electron     400.0000000 magnetization 
 augmentation part        9.2567924 magnetization 

 Free energy of the ion-electron system (eV)
  ---------------------------------------------------
  alpha Z        PSCENC =       370.05370877
  Ewald energy   TEWEN  =    -15505.55135322
  -Hartree energ DENC   =     -8459.51755667
  -exchange      EXHF   =       768.76234201
  -V(xc)+E(xc)   XCENC  =       279.52181748
  PAW double counting   =     35899.12760588   -35235.67612878
  entropy T*S    EENTRO =        -0.00000000
  eigenvalues    EBANDS =     -3276.11344226
  atomic energy  EATOM  =     24680.42500649
  ---------------------------------------------------
  free energy    TOTEN  =      -478.96800030 eV

  energy without entropy =     -478.96800030  energy(sigma->0) =     -478.96800030
  exchange ACFDT corr.  =         0.00000000  see jH, gK, PRB 81, 115126


--------------------------------------------------------------------------------------------------------




----------------------------------------- Iteration    1(  11)  ---------------------------------------


    POTLOK:  cpu time    0.2760: real time    0.2770
    SETDIJ:  cpu time    0.6680: real time    0.6654
    TRIAL :  cpu time  289.7861: real time  289.9838
    CORREC:  cpu time  290.1221: real time  290.3109
    CHARGE:  cpu time    0.8841: real time    0.8813
    --------------------------------------------
      LOOP:  cpu time  581.7364: real time  582.1287

 eigenvalue-minimisations  :     0
 total energy-change (2. order) :-0.2163593E+00  (-0.1090596E+00)
 number of electron     400.0000000 magnetization 
 augmentation part        9.3564019 magnetization 

 Free energy of the ion-electron system (eV)
  ---------------------------------------------------
  alpha Z        PSCENC =       370.05370877
  Ewald energy   TEWEN  =    -15505.55135322
  -Hartree energ DENC   =     -8432.26675101
  -exchange      EXHF   =       768.19095631
  -V(xc)+E(xc)   XCENC  =       278.60165490
  PAW double counting   =     35308.29668014   -34645.15576885
  entropy T*S    EENTRO =         0.00000000
  eigenvalues    EBANDS =     -3301.77849318
  atomic energy  EATOM  =     24680.42500649
  ---------------------------------------------------
  free energy    TOTEN  =      -479.18435965 eV

  energy without entropy =     -479.18435965  energy(sigma->0) =     -479.18435965
  exchange ACFDT corr.  =         0.00000000  see jH, gK, PRB 81, 115126


--------------------------------------------------------------------------------------------------------




----------------------------------------- Iteration    1(  12)  ---------------------------------------


    POTLOK:  cpu time    0.2640: real time    0.2625
    SETDIJ:  cpu time    0.6440: real time    0.6468
    TRIAL :  cpu time  289.7021: real time  289.9120
    CORREC:  cpu time  290.2461: real time  290.4271
    CHARGE:  cpu time    0.8801: real time    0.8827
    --------------------------------------------
      LOOP:  cpu time  581.7404: real time  582.1408

 eigenvalue-minimisations  :     0
 total energy-change (2. order) :-0.1089549E+00  (-0.3396211E-01)
 number of electron     400.0000000 magnetization 
 augmentation part        9.3637451 magnetization 

 Free energy of the ion-electron system (eV)
  ---------------------------------------------------
  alpha Z        PSCENC =       370.05370877
  Ewald energy   TEWEN  =    -15505.55135322
  -Hartree energ DENC   =     -8450.42535710
  -exchange      EXHF   =       768.73055147
  -V(xc)+E(xc)   XCENC  =       279.07241367
  PAW double counting   =     35194.91270413   -34531.27748687
  entropy T*S    EENTRO =        -0.00000000
  eigenvalues    EBANDS =     -3285.23350187
  atomic energy  EATOM  =     24680.42500649
  ---------------------------------------------------
  free energy    TOTEN  =      -479.29331455 eV

  energy without entropy =     -479.29331455  energy(sigma->0) =     -479.29331455
  exchange ACFDT corr.  =         0.00000000  see jH, gK, PRB 81, 115126


--------------------------------------------------------------------------------------------------------




----------------------------------------- Iteration    1(  13)  ---------------------------------------


    POTLOK:  cpu time    0.2720: real time    0.2705
    SETDIJ:  cpu time    0.6280: real time    0.6299
    TRIAL :  cpu time  289.9261: real time  290.2539
    CORREC:  cpu time  289.9941: real time  290.1781
    CHARGE:  cpu time    0.8841: real time    0.8862
    --------------------------------------------
      LOOP:  cpu time  581.7044: real time  582.2417

 eigenvalue-minimisations  :     0
 total energy-change (2. order) :-0.3390237E-01  (-0.9895683E-02)
 number of electron     400.0000000 magnetization 
 augmentation part        9.3434856 magnetization 

 Free energy of the ion-electron system (eV)
  ---------------------------------------------------
  alpha Z        PSCENC =       370.05370877
  Ewald energy   TEWEN  =    -15505.55135322
  -Hartree energ DENC   =     -8450.63495376
  -exchange      EXHF   =       768.82759675
  -V(xc)+E(xc)   XCENC  =       279.13734610
  PAW double counting   =     35384.40458204   -34720.77078424
  entropy T*S    EENTRO =         0.00000000
  eigenvalues    EBANDS =     -3285.21836585
  atomic energy  EATOM  =     24680.42500649
  ---------------------------------------------------
  free energy    TOTEN  =      -479.32721692 eV

  energy without entropy =     -479.32721692  energy(sigma->0) =     -479.32721692
  exchange ACFDT corr.  =         0.00000000  see jH, gK, PRB 81, 115126


--------------------------------------------------------------------------------------------------------




----------------------------------------- Iteration    1(  14)  ---------------------------------------


    POTLOK:  cpu time    0.2640: real time    0.2650
    SETDIJ:  cpu time    0.6520: real time    0.6542
    TRIAL :  cpu time  289.8061: real time  290.0075
    CORREC:  cpu time  290.0981: real time  290.2808
    CHARGE:  cpu time    0.8801: real time    0.8813
    --------------------------------------------
      LOOP:  cpu time  581.7044: real time  582.0983

 eigenvalue-minimisations  :     0
 total energy-change (2. order) :-0.9888540E-02  (-0.2728636E-02)
 number of electron     400.0000000 magnetization 
 augmentation part        9.3742945 magnetization 

 Free energy of the ion-electron system (eV)
  ---------------------------------------------------
  alpha Z        PSCENC =       370.05370877
  Ewald energy   TEWEN  =    -15505.55135322
  -Hartree energ DENC   =     -8447.95779768
  -exchange      EXHF   =       768.76279692
[...]


 FORCES acting on ions:
    Electron-Ion                     Ewald-Force                    Non-Local-Force
 -----------------------------------------------------------------------------------------------
   0.869E+02 0.564E-01 0.383E+02   -.941E+02 -.648E-01 -.417E+02   0.668E+01 0.768E-02 0.309E+01
   0.867E+02 0.558E-01 0.358E+02   -.941E+02 -.644E-01 -.389E+02   0.677E+01 0.785E-02 0.285E+01
   0.867E+02 0.558E-01 0.358E+02   -.941E+02 -.644E-01 -.389E+02   0.677E+01 0.785E-02 0.285E+01
   0.869E+02 0.564E-01 0.383E+02   -.941E+02 -.648E-01 -.417E+02   0.668E+01 0.768E-02 0.309E+01
   0.869E+02 0.564E-01 0.383E+02   -.941E+02 -.648E-01 -.417E+02   0.668E+01 0.768E-02 0.309E+01
   0.867E+02 0.558E-01 0.358E+02   -.941E+02 -.644E-01 -.389E+02   0.677E+01 0.785E-02 0.285E+01
   0.867E+02 0.558E-01 0.358E+02   -.941E+02 -.644E-01 -.389E+02   0.677E+01 0.785E-02 0.285E+01
   0.869E+02 0.564E-01 0.383E+02   -.941E+02 -.648E-01 -.417E+02   0.668E+01 0.768E-02 0.309E+01
   -.378E+02 -.913E-01 -.181E+02   0.370E+02 0.881E-01 0.173E+02   0.120E+01 0.320E-02 0.940E+00
   -.384E+02 -.999E-01 -.169E+02   0.375E+02 0.972E-01 0.162E+02   0.127E+01 0.275E-02 0.770E+00
   -.384E+02 -.999E-01 -.169E+02   0.375E+02 0.972E-01 0.162E+02   0.127E+01 0.275E-02 0.770E+00
   -.378E+02 -.913E-01 -.181E+02   0.370E+02 0.881E-01 0.173E+02   0.120E+01 0.320E-02 0.940E+00
   -.378E+02 -.913E-01 -.181E+02   0.370E+02 0.881E-01 0.173E+02   0.120E+01 0.320E-02 0.940E+00
   -.384E+02 -.999E-01 -.169E+02   0.375E+02 0.972E-01 0.162E+02   0.127E+01 0.275E-02 0.770E+00
   -.384E+02 -.999E-01 -.169E+02   0.375E+02 0.972E-01 0.162E+02   0.127E+01 0.275E-02 0.770E+00
   -.378E+02 -.913E-01 -.181E+02   0.370E+02 0.881E-01 0.173E+02   0.120E+01 0.320E-02 0.940E+00
   0.497E+01 0.499E-01 0.526E+02   -.457E+01 -.557E-01 -.581E+02   -.409E+00 0.599E-02 0.563E+01
   0.624E+01 0.454E-01 0.526E+02   -.604E+01 -.506E-01 -.581E+02   -.212E+00 0.540E-02 0.564E+01
   0.624E+01 0.454E-01 0.526E+02   -.604E+01 -.506E-01 -.581E+02   -.212E+00 0.540E-02 0.564E+01
   0.497E+01 0.499E-01 0.526E+02   -.457E+01 -.557E-01 -.581E+02   -.409E+00 0.599E-02 0.563E+01
   0.497E+01 0.499E-01 0.526E+02   -.457E+01 -.557E-01 -.581E+02   -.409E+00 0.599E-02 0.563E+01
   0.624E+01 0.454E-01 0.526E+02   -.604E+01 -.506E-01 -.581E+02   -.212E+00 0.540E-02 0.564E+01
   0.624E+01 0.454E-01 0.526E+02   -.604E+01 -.506E-01 -.581E+02   -.212E+00 0.540E-02 0.564E+01
   0.497E+01 0.499E-01 0.526E+02   -.457E+01 -.557E-01 -.581E+02   -.409E+00 0.599E-02 0.563E+01
   0.311E+02 -.394E+02 -.978E+01   -.338E+02 0.439E+02 0.113E+02   0.286E+01 -.459E+01 -.158E+01
   0.303E+02 -.394E+02 -.107E+02   -.330E+02 0.439E+02 0.124E+02   0.281E+01 -.459E+01 -.167E+01
   0.303E+02 -.394E+02 -.107E+02   -.330E+02 0.439E+02 0.124E+02   0.281E+01 -.459E+01 -.167E+01
   0.311E+02 -.394E+02 -.978E+01   -.338E+02 0.439E+02 0.113E+02   0.286E+01 -.459E+01 -.158E+01
   0.311E+02 -.394E+02 -.978E+01   -.338E+02 0.439E+02 0.113E+02   0.286E+01 -.459E+01 -.158E+01
   0.303E+02 -.394E+02 -.107E+02   -.330E+02 0.439E+02 0.124E+02   0.281E+01 -.459E+01 -.167E+01
   0.303E+02 -.394E+02 -.107E+02   -.330E+02 0.439E+02 0.124E+02   0.281E+01 -.459E+01 -.167E+01
   0.311E+02 -.394E+02 -.978E+01   -.338E+02 0.439E+02 0.113E+02   0.286E+01 -.459E+01 -.158E+01
   0.310E+02 0.394E+02 -.986E+01   -.338E+02 -.439E+02 0.114E+02   0.286E+01 0.459E+01 -.159E+01
   0.302E+02 0.394E+02 -.108E+02   -.329E+02 -.439E+02 0.124E+02   0.281E+01 0.459E+01 -.168E+01
   0.302E+02 0.394E+02 -.108E+02   -.329E+02 -.439E+02 0.124E+02   0.281E+01 0.459E+01 -.168E+01
   0.310E+02 0.394E+02 -.986E+01   -.338E+02 -.439E+02 0.114E+02   0.286E+01 0.459E+01 -.159E+01
   0.310E+02 0.394E+02 -.986E+01   -.338E+02 -.439E+02 0.114E+02   0.286E+01 0.459E+01 -.159E+01
   0.302E+02 0.394E+02 -.108E+02   -.329E+02 -.439E+02 0.124E+02   0.281E+01 0.459E+01 -.168E+01
   0.302E+02 0.394E+02 -.108E+02   -.329E+02 -.439E+02 0.124E+02   0.281E+01 0.459E+01 -.168E+01
   0.310E+02 0.394E+02 -.986E+01   -.338E+02 -.439E+02 0.114E+02   0.286E+01 0.459E+01 -.159E+01
   -.339E+02 -.485E+02 0.169E+02   0.373E+02 0.537E+02 -.186E+02   -.357E+01 -.548E+01 0.180E+01
   -.333E+02 -.487E+02 0.180E+02   0.367E+02 0.539E+02 -.198E+02   -.352E+01 -.548E+01 0.193E+01
   -.333E+02 -.487E+02 0.180E+02   0.367E+02 0.539E+02 -.198E+02   -.352E+01 -.548E+01 0.193E+01
   -.339E+02 -.485E+02 0.169E+02   0.373E+02 0.537E+02 -.186E+02   -.357E+01 -.548E+01 0.180E+01
   -.339E+02 -.485E+02 0.169E+02   0.373E+02 0.537E+02 -.186E+02   -.357E+01 -.548E+01 0.180E+01
   -.333E+02 -.487E+02 0.180E+02   0.367E+02 0.539E+02 -.198E+02   -.352E+01 -.548E+01 0.193E+01
   -.333E+02 -.487E+02 0.180E+02   0.367E+02 0.539E+02 -.198E+02   -.352E+01 -.548E+01 0.193E+01
   -.339E+02 -.485E+02 0.169E+02   0.373E+02 0.537E+02 -.186E+02   -.357E+01 -.548E+01 0.180E+01
   -.340E+02 0.485E+02 0.168E+02   0.374E+02 -.537E+02 -.185E+02   -.357E+01 0.548E+01 0.179E+01
   -.334E+02 0.486E+02 0.179E+02   0.367E+02 -.539E+02 -.197E+02   -.352E+01 0.548E+01 0.192E+01
   -.334E+02 0.486E+02 0.179E+02   0.367E+02 -.539E+02 -.197E+02   -.352E+01 0.548E+01 0.192E+01
   -.340E+02 0.485E+02 0.168E+02   0.374E+02 -.537E+02 -.185E+02   -.357E+01 0.548E+01 0.179E+01
   -.340E+02 0.485E+02 0.168E+02   0.374E+02 -.537E+02 -.185E+02   -.357E+01 0.548E+01 0.179E+01
   -.334E+02 0.486E+02 0.179E+02   0.367E+02 -.539E+02 -.197E+02   -.352E+01 0.548E+01 0.192E+01
   -.334E+02 0.486E+02 0.179E+02   0.367E+02 -.539E+02 -.197E+02   -.352E+01 0.548E+01 0.192E+01
   -.340E+02 0.485E+02 0.168E+02   0.374E+02 -.537E+02 -.185E+02   -.357E+01 0.548E+01 0.179E+01
   0.488E+01 -.772E-01 -.651E+02   -.503E+01 0.849E-01 0.718E+02   0.119E+00 -.805E-02 -.696E+01
   0.262E+01 -.709E-01 -.644E+02   -.252E+01 0.776E-01 0.711E+02   -.143E+00 -.699E-02 -.691E+01
   0.262E+01 -.709E-01 -.644E+02   -.252E+01 0.776E-01 0.711E+02   -.143E+00 -.699E-02 -.691E+01
   0.488E+01 -.772E-01 -.651E+02   -.503E+01 0.849E-01 0.718E+02   0.119E+00 -.805E-02 -.696E+01
   0.488E+01 -.772E-01 -.651E+02   -.503E+01 0.849E-01 0.718E+02   0.119E+00 -.805E-02 -.696E+01
   0.262E+01 -.709E-01 -.644E+02   -.252E+01 0.776E-01 0.711E+02   -.143E+00 -.699E-02 -.691E+01
   0.262E+01 -.709E-01 -.644E+02   -.252E+01 0.776E-01 0.711E+02   -.143E+00 -.699E-02 -.691E+01
   0.488E+01 -.772E-01 -.651E+02   -.503E+01 0.849E-01 0.718E+02   0.119E+00 -.805E-02 -.696E+01
   -.315E+02 -.139E+01 -.118E+02   0.302E+02 0.140E+01 0.114E+02   0.126E+01 -.625E-02 0.326E+00
   -.315E+02 0.153E+01 -.118E+02   0.302E+02 -.155E+01 0.114E+02   0.126E+01 0.175E-01 0.326E+00
   -.315E+02 0.153E+01 -.118E+02   0.302E+02 -.155E+01 0.114E+02   0.126E+01 0.175E-01 0.326E+00
   -.315E+02 -.139E+01 -.118E+02   0.302E+02 0.140E+01 0.114E+02   0.126E+01 -.625E-02 0.326E+00
   -.315E+02 -.139E+01 -.118E+02   0.302E+02 0.140E+01 0.114E+02   0.126E+01 -.625E-02 0.326E+00
   -.315E+02 0.153E+01 -.118E+02   0.302E+02 -.155E+01 0.114E+02   0.126E+01 0.175E-01 0.326E+00
   -.315E+02 0.153E+01 -.118E+02   0.302E+02 -.155E+01 0.114E+02   0.126E+01 0.175E-01 0.326E+00
   -.315E+02 -.139E+01 -.118E+02   0.302E+02 0.140E+01 0.114E+02   0.126E+01 -.625E-02 0.326E+00
   -.173E+02 -.720E+00 0.563E+01   0.175E+02 0.722E+00 -.556E+01   -.111E+00 -.113E-02 -.764E-01
   -.173E+02 0.800E+00 0.563E+01   0.175E+02 -.803E+00 -.556E+01   -.111E+00 0.228E-02 -.763E-01
   -.173E+02 0.800E+00 0.563E+01   0.175E+02 -.803E+00 -.556E+01   -.111E+00 0.228E-02 -.763E-01
   -.173E+02 -.720E+00 0.563E+01   0.175E+02 0.722E+00 -.556E+01   -.111E+00 -.113E-02 -.764E-01
   -.173E+02 -.720E+00 0.563E+01   0.175E+02 0.722E+00 -.556E+01   -.111E+00 -.113E-02 -.764E-01
   -.173E+02 0.800E+00 0.563E+01   0.175E+02 -.803E+00 -.556E+01   -.111E+00 0.228E-02 -.763E-01
   -.173E+02 0.800E+00 0.563E+01   0.175E+02 -.803E+00 -.556E+01   -.111E+00 0.228E-02 -.763E-01
   -.173E+02 -.720E+00 0.563E+01   0.175E+02 0.722E+00 -.556E+01   -.111E+00 -.113E-02 -.764E-01
   -.167E+02 -.531E-01 -.161E+02   0.166E+02 0.545E-01 0.167E+02   0.105E+00 -.107E-02 -.565E+00
   -.119E+02 -.552E-01 -.162E+02   0.117E+02 0.566E-01 0.168E+02   0.140E+00 -.108E-02 -.591E+00
   -.119E+02 -.552E-01 -.162E+02   0.117E+02 0.566E-01 0.168E+02   0.140E+00 -.108E-02 -.591E+00
   -.167E+02 -.531E-01 -.161E+02   0.166E+02 0.545E-01 0.167E+02   0.105E+00 -.107E-02 -.565E+00
   -.167E+02 -.531E-01 -.161E+02   0.166E+02 0.545E-01 0.167E+02   0.105E+00 -.107E-02 -.565E+00
   -.119E+02 -.552E-01 -.162E+02   0.117E+02 0.566E-01 0.168E+02   0.140E+00 -.108E-02 -.591E+00
   -.119E+02 -.552E-01 -.162E+02   0.117E+02 0.566E-01 0.168E+02   0.140E+00 -.108E-02 -.591E+00
   -.167E+02 -.531E-01 -.161E+02   0.166E+02 0.545E-01 0.167E+02   0.105E+00 -.107E-02 -.565E+00
   0.370E+01 0.882E+00 -.253E+01   -.314E+01 -.921E+00 0.211E+01   -.561E+00 0.326E-01 0.428E+00
   0.370E+01 -.860E+00 -.252E+01   -.314E+01 0.900E+00 0.210E+01   -.561E+00 -.339E-01 0.428E+00
   0.370E+01 -.860E+00 -.252E+01   -.314E+01 0.900E+00 0.210E+01   -.561E+00 -.339E-01 0.428E+00
   0.370E+01 0.882E+00 -.253E+01   -.314E+01 -.921E+00 0.211E+01   -.561E+00 0.326E-01 0.428E+00
   0.370E+01 0.882E+00 -.253E+01   -.314E+01 -.921E+00 0.211E+01   -.561E+00 0.326E-01 0.428E+00
   0.370E+01 -.860E+00 -.252E+01   -.314E+01 0.900E+00 0.210E+01   -.561E+00 -.339E-01 0.428E+00
   0.370E+01 -.860E+00 -.252E+01   -.314E+01 0.900E+00 0.210E+01   -.561E+00 -.339E-01 0.428E+00
   0.370E+01 0.882E+00 -.253E+01   -.314E+01 -.921E+00 0.211E+01   -.561E+00 0.326E-01 0.428E+00
 -----------------------------------------------------------------------------------------------
   -.592E+02 -.119E+00 -.263E+02   0.283E-12 -.223E-12 -.688E-13   0.554E+02 0.111E+00 0.246E+02
 
 
 POSITION                                       TOTAL-FORCE (eV/Angst)
 -----------------------------------------------------------------------------------
      2.52356      3.11370      2.92313        -0.265236     -0.000366     -0.118287
      8.78441      3.11454      3.03620        -0.269242     -0.000371     -0.108665
      2.49659      9.34235      2.96673        -0.269242     -0.000371     -0.108665
      8.81257      9.34343      2.99186        -0.265236     -0.000366     -0.118287
      2.59326      3.11374      9.29684        -0.265236     -0.000366     -0.118287
      8.85412      3.11458      9.40991        -0.269242     -0.000371     -0.108665
      2.56630      9.34239      9.34044        -0.269242     -0.000371     -0.108665
      8.88228      9.34347      9.36557        -0.265236     -0.000366     -0.118287
      3.87247      3.11508      3.53451         0.471949      0.000233      0.206667
     10.15314      3.11595      3.60102         0.482284      0.000219      0.193497
      3.86532      9.34376      3.53155         0.482284      0.000219      0.193497
     10.16149      9.34481      3.60324         0.471949      0.000233      0.206667
      3.94217      3.11513      9.90822         0.471949      0.000233      0.206667
     10.22285      3.11600      9.97473         0.482284      0.000219      0.193497
      3.93503      9.34381      9.90526         0.482284      0.000219      0.193497
     10.23119      9.34485      9.97695         0.471949      0.000233      0.206667
      2.63219      3.11256      1.82918        -0.029056      0.000470      0.398317
      8.85506      3.11352      1.93915        -0.015029      0.000423      0.398740
      2.56724      9.34133      1.86967        -0.015029      0.000423      0.398740
      8.92121      9.34229      1.89791        -0.029056      0.000470      0.398317
      2.70189      3.11261      8.20289        -0.029056      0.000470      0.398317
      8.92477      3.11356      8.31286        -0.015029      0.000423      0.398740
      2.63695      9.34137      8.24338        -0.015029      0.000423      0.398740
      8.99091      9.34234      8.27162        -0.029056      0.000470      0.398317
      1.98552      4.01625      3.24733         0.209020     -0.323466     -0.110104
      8.25708      4.01677      3.37827         0.205991     -0.323000     -0.116156
      1.96926     10.24458      3.30880         0.205991     -0.323000     -0.116156
      8.27453     10.24598      3.31605         0.209020     -0.323466     -0.110104
      2.05522      4.01629      9.62104         0.209020     -0.323466     -0.110104
      8.32679      4.01682      9.75198         0.205991     -0.323000     -0.116156
      2.03896     10.24463      9.68251         0.205991     -0.323000     -0.116156
      8.34424     10.24602      9.68976         0.209020     -0.323466     -0.110104
      1.98659      2.21120      3.24928         0.208511      0.323801     -0.110929
      8.25833      2.21222      3.38002         0.205437      0.323390     -0.116893
      1.97051      8.44003      3.31054         0.205437      0.323390     -0.116893
      8.27561      8.44093      3.31801         0.208511      0.323801     -0.110929
      2.05630      2.21125      9.62299         0.208511      0.323801     -0.110929
      8.32804      2.21227      9.75373         0.205437      0.323390     -0.116893
      2.04022      8.44008      9.68426         0.205437      0.323390     -0.116893
      8.34532      8.44097      9.69172         0.208511      0.323801     -0.110929
      4.42219      3.96108      3.25503        -0.324723     -0.491872      0.149275
     10.69377      3.96111      3.30281        -0.321059     -0.490459      0.160458
      4.40595     10.18892      3.23334        -0.321059     -0.490459      0.160458
     10.71120     10.19081      3.32376        -0.324723     -0.491872      0.149275
      4.49189      3.96113      9.62874        -0.324723     -0.491872      0.149275
     10.76348      3.96116      9.67652        -0.321059     -0.490459      0.160458
      4.47566     10.18897      9.60705        -0.321059     -0.490459      0.160458
     10.78091     10.19086      9.69747        -0.324723     -0.491872      0.149275
      4.42285      2.26883      3.25697        -0.325104      0.492256      0.147967
     10.69460      2.27067      3.30453        -0.321532      0.490779      0.159262
      4.40678      8.49848      3.23506        -0.321532      0.490779      0.159262
     10.71186      8.49855      3.32569        -0.325104      0.492256      0.147967
      4.49255      2.26887      9.63068        -0.325104      0.492256      0.147967
     10.76431      2.27071      9.67824        -0.321532      0.490779      0.159262
      4.47649      8.49852      9.60877        -0.321532      0.490779      0.159262
     10.78157      8.49860      9.69940        -0.325104      0.492256      0.147967
      3.84705      3.11628      4.57527        -0.023204     -0.000756     -0.589767
     10.16696      3.11700      4.64345        -0.048377     -0.000650     -0.594718
      3.87914      9.34481      4.57398        -0.048377     -0.000650     -0.594718
     10.13607      9.34601      4.64400        -0.023204     -0.000756     -0.589767
      3.91676      3.11632     10.94898        -0.023204     -0.000756     -0.589767
     10.23666      3.11705     11.01716        -0.048377     -0.000650     -0.594718
      3.94884      9.34486     10.94769        -0.048377     -0.000650     -0.594718
     10.20577      9.34605     11.01771        -0.023204     -0.000756     -0.589767
      6.01058      6.23186      6.29600         0.011527      0.000725      0.010675
     12.29897      6.22828      6.36511         0.011530     -0.001121      0.010676
      6.01115     12.45609      6.29563         0.011530     -0.001121      0.010676
     12.29840      0.00404      6.36547         0.011527      0.000725      0.010675
      6.08028      6.23190     12.66971         0.011527      0.000725      0.010675
     12.36868      6.22833     12.73882         0.011530     -0.001121      0.010676
      6.08086     12.45614     12.66934         0.011530     -0.001121      0.010676
     12.36811      0.00409     12.73918         0.011527      0.000725      0.010675
      5.75299      6.23076      3.09090         0.044640      0.000721     -0.015398
     12.04134      6.22930      3.16002         0.044632     -0.001154     -0.015400
      5.75352     12.45711      3.09055         0.044632     -0.001154     -0.015400
     12.04081      0.00295      3.16038         0.044640      0.000721     -0.015398
      5.82269      6.23080      9.46461         0.044640      0.000721     -0.015398
     12.11105      6.22935      9.53373         0.044632     -0.001154     -0.015400
      5.82322     12.45716      9.46426         0.044632     -0.001154     -0.015400
     12.11052      0.00299      9.53409         0.044640      0.000721     -0.015398
      5.70090      3.11498      0.20488         0.052030      0.000282      0.001545
     11.90140      3.11595      0.28979         0.040943      0.000284      0.004115
      5.61358      9.34376      0.22032         0.040943      0.000284      0.004115
     11.98992      9.34471      0.27360         0.052030      0.000282      0.001545
      5.77061      3.11503      6.57859         0.052030      0.000282      0.001545
     11.97110      3.11599      6.66350         0.040943      0.000284      0.004115
      5.68328      9.34380      6.59403         0.040943      0.000284      0.004115
     12.05962      9.34476      6.64731         0.052030      0.000282      0.001545
      2.78366      6.17711      5.90912        -0.022965     -0.004141      0.027565
      9.07207      6.28223      5.97821        -0.022968      0.003775      0.027558
      2.78305      0.05251      5.90949        -0.022968      0.003775      0.027558
      9.07267     12.40684      5.97785        -0.022965     -0.004141      0.027565
      2.85336      6.17715     12.28283        -0.022965     -0.004141      0.027565
      9.14177      6.28228     12.35192        -0.022968      0.003775      0.027558
      2.85275      0.05255     12.28320        -0.022968      0.003775      0.027558
      9.14238     12.40688     12.35156        -0.022965     -0.004141      0.027565
 -----------------------------------------------------------------------------------
    total drift:                                0.009840      0.000408     -0.006028


--------------------------------------------------------------------------------------------------------



  FREE ENERGIE OF THE ION-ELECTRON SYSTEM (eV)
  ---------------------------------------------------
  free  energy   TOTEN  =      -479.34223296 eV

  energy  without entropy=     -479.34223296  energy(sigma->0) =     -479.34223296
 


--------------------------------------------------------------------------------------------------------


    POTLOK:  cpu time    0.9281: real time    0.9275


--------------------------------------------------------------------------------------------------------


     LOOP+:  cpu time15574.6334: real time15588.4913
    4ORBIT:  cpu time    0.0000: real time    0.0000

 total amount of memory used by VASP on root node   247726. kBytes
========================================================================

   base      :      30000. kBytes
   nonl-proj :      82891. kBytes
   fftplans  :      15020. kBytes
   grid      :      12652. kBytes
   one-center:        124. kBytes
   HF        :        259. kBytes
   nonlr-proj:      29194. kBytes
   wavefun   :      77586. kBytes
 
  
  
 General timing and accounting informations for this job:
 ========================================================
  
                  Total CPU time used (sec):    15623.284
                            User time (sec):    15613.036
                          System time (sec):       10.249
                         Elapsed time (sec):    15641.356
  
                   Maximum memory used (kb):      383920.
                   Average memory used (kb):           0.
  
                          Minor page faults:       143729
                          Major page faults:            0
                 Voluntary context switches:         1736
