 running on 1344 total cores
 distrk:  each k-point on  192 cores,    7 groups
 distr:  one band on   12 cores,   16 groups
 using from now: INCAR     
 vasp.5.4.1 24Jun15 (build Nov 25 2015 16:01:35) complex                        
  
 POSCAR found type information on POSCAR  C  N  H  Pb I 
 POSCAR found :  5 types and      96 ions
 scaLAPACK will be used

 ----------------------------------------------------------------------------- 
|                                                                             |
|           W    W    AA    RRRRR   N    N  II  N    N   GGGG   !!!           |
|           W    W   A  A   R    R  NN   N  II  NN   N  G    G  !!!           |
|           W    W  A    A  R    R  N N  N  II  N N  N  G       !!!           |
|           W WW W  AAAAAA  RRRRR   N  N N  II  N  N N  G  GGG   !            |
|           WW  WW  A    A  R   R   N   NN  II  N   NN  G    G                |
|           W    W  A    A  R    R  N    N  II  N    N   GGGG   !!!           |
|                                                                             |
|      For optimal performance we recommend to set                            |
|        NCORE= 4 - approx SQRT( number of cores)                             |
|      NCORE specifies how many cores store one orbital (NPAR=cpu/NCORE).     |
|      This setting can  greatly improve the performance of VASP for DFT.     |
|      The default, NPAR=number of cores might be grossly inefficient         |
|      on modern multi-core architectures or massively parallel machines.     |
|      Do your own testing !!!!                                               |
|      Unfortunately you need to use the default for GW and RPA calculations. |
|      (for HF NCORE is supported but not extensively tested yet)             |
|                                                                             |
 ----------------------------------------------------------------------------- 


 ----------------------------------------------------------------------------- 
|                                                                             |
|           W    W    AA    RRRRR   N    N  II  N    N   GGGG   !!!           |
|           W    W   A  A   R    R  NN   N  II  NN   N  G    G  !!!           |
|           W    W  A    A  R    R  N N  N  II  N N  N  G       !!!           |
|           W WW W  AAAAAA  RRRRR   N  N N  II  N  N N  G  GGG   !            |
|           WW  WW  A    A  R   R   N   NN  II  N   NN  G    G                |
|           W    W  A    A  R    R  N    N  II  N    N   GGGG   !!!           |
|                                                                             |
|      You have enabled k-point parallelism (KPAR>1).                         |
|      This developmental code was originally  written by Paul Kent at ORNL,  |
|      and carefully double checked in Vienna.                                |
|      GW as well as linear response parallelism added by Martijn Marsman     |
|      and Georg Kresse.                                                      |
|      Carefully verify results versus KPAR=1.                                |
|      Report problems to Paul Kent and Vienna.                               |
|                                                                             |
 ----------------------------------------------------------------------------- 


 ----------------------------------------------------------------------------- 
|                                                                             |
|  ADVICE TO THIS USER RUNNING 'VASP/VAMP'   (HEAR YOUR MASTER'S VOICE ...):  |
|                                                                             |
|      You have a (more or less) 'large supercell' and for larger cells       |
|      it might be more efficient to use real space projection opertators     |
|      So try LREAL= Auto  in the INCAR   file.                               |
|      Mind: At the moment your POTCAR file does not contain real space       |
|       projectors, and has to be modified,  BUT if you                       |
|      want to do an extremely  accurate calculation you might also keep the  |
|      reciprocal projection scheme          (i.e. LREAL=.FALSE.)             |
|                                                                             |
 ----------------------------------------------------------------------------- 

 LDA part: xc-table for Pade appr. of Perdew
 POSCAR, INCAR and KPOINTS ok, starting setup
 WARNING: small aliasing (wrap around) errors must be expected
 FFT: planning ...
 WAVECAR not read
  WARNING: DENMP: can't reach specified precision
  Number of Electrons is NELECT =   399.999999999859     
 entering main loop
       N       E                     dE             d eps       ncg     rms          ort
DAV:   1     0.345876934304E+05    0.34588E+05   -0.11421E+06  3584   0.486E+03
DAV:   2     0.859285797255E+04   -0.25995E+05   -0.25261E+05  3584   0.168E+03
DAV:   3     0.178901068646E+04   -0.68038E+04   -0.66996E+04  3584   0.499E+02
DAV:   4     0.438670940769E+03   -0.13503E+04   -0.12956E+04  3584   0.208E+02
DAV:   5     0.274344748752E+03   -0.16433E+03   -0.16175E+03  3584   0.776E+01
 gam= 0.000 g(H,U,f)=  0.103E+03 0.520E+01 0.323E-67 ort(H,U,f) = 0.000E+00 0.000E+00 0.000E+00
SDA:   6    -0.449625520809E+03   -0.72397E+03   -0.16175E+03  3584   0.109E+03 0.000E+00
 gam= 0.000 trial= 0.400  step= 0.337 mean= 0.400
 gam= 0.352 g(H,U,f)=  0.365E+02 0.170E+01 0.000E+00 ort(H,U,f) =-0.203E+01 0.264E+01 0.000E+00
CGA:   7    -0.467886481258E+03   -0.18261E+02   -0.18324E+02  3584   0.382E+02 0.606E+00
 gam= 0.352 trial= 0.397  step= 0.392 mean= 0.397
 gam= 0.212 g(H,U,f)=  0.767E+01 0.407E+00 0.000E+00 ort(H,U,f) =-0.994E+00 0.100E+01 0.000E+00
CGA:   8    -0.475412513850E+03   -0.75260E+01   -0.75263E+01  3584   0.808E+01 0.900E-02
 gam= 0.212 trial= 0.397  step= 0.668 mean= 0.397
 gam= 0.334 g(H,U,f)=  0.255E+01 0.151E+00 0.466-105 ort(H,U,f) =-0.349E+00 0.340E+00 0.102-104
CGA:   9    -0.478111757908E+03   -0.26992E+01   -0.26989E+01  3584   0.270E+01-0.838E-02
 gam= 0.334 trial= 0.410  step= 0.636 mean= 0.410
 gam= 0.366 g(H,U,f)=  0.942E+00 0.450E-01 0.000E+00 ort(H,U,f) =-0.140E+00 0.132E+00 0.000E+00
CGA:  10    -0.478968000303E+03   -0.85624E+00   -0.85711E+00  3584   0.987E+00-0.793E-02
 gam= 0.366 trial= 0.421  step= 0.440 mean= 0.421
 gam= 0.405 g(H,U,f)=  0.381E+00 0.187E-01 0.738-221 ort(H,U,f) =-0.544E-01 0.530E-01 0.232-220
CGA:  11    -0.479184359651E+03   -0.21636E+00   -0.21638E+00  3584   0.400E+00-0.140E-02
 gam= 0.405 trial= 0.422  step= 0.547 mean= 0.422
 gam= 0.250 g(H,U,f)=  0.957E-01 0.415E-02 0.000E+00 ort(H,U,f) =-0.184E-01 0.168E-01 0.000E+00
CGA:  12    -0.479293314547E+03   -0.10895E+00   -0.10906E+00  3584   0.999E-01-0.163E-02
 gam= 0.250 trial= 0.429  step= 0.683 mean= 0.429
 gam= 0.304 g(H,U,f)=  0.293E-01 0.100E-02 0.101-291 ort(H,U,f) =-0.418E-02 0.375E-02 0.634-291
CGA:  13    -0.479327216915E+03   -0.33902E-01   -0.33962E-01  3584   0.303E-01-0.435E-03
 gam= 0.304 trial= 0.441  step= 0.656 mean= 0.441
 gam= 0.376 g(H,U,f)=  0.111E-01 0.280E-03 0.000E+00 ort(H,U,f) =-0.102E-02 0.968E-03 0.000E+00
CGA:  14    -0.479337105455E+03   -0.98885E-02   -0.98957E-02  3584   0.114E-01-0.549E-04
 gam= 0.376 trial= 0.452  step= 0.479 mean= 0.452
 gam= 0.523 g(H,U,f)=  0.589E-02 0.833E-04 0.000E+00 ort(H,U,f) =-0.466E-03 0.233E-03 0.000E+00
CGA:  15    -0.479339830914E+03   -0.27255E-02   -0.27286E-02  3584   0.597E-02-0.233E-03
 gam= 0.523 trial= 0.453  step= 0.474 mean= 0.453
 gam= 0.298 g(H,U,f)=  0.175E-02 0.299E-04 0.000E+00 ort(H,U,f) =-0.239E-04 0.713E-04 0.000E+00
CGA:  16    -0.479341216551E+03   -0.13856E-02   -0.13852E-02  3584   0.178E-02 0.474E-04
 gam= 0.298 trial= 0.454  step= 0.741 mean= 0.454
 gam= 0.378 g(H,U,f)=  0.662E-03 0.117E-04 0.368-200 ort(H,U,f) =-0.573E-04 0.501E-05-0.209-200
CGA:  17    -0.479341874395E+03   -0.65784E-03   -0.66539E-03  3584   0.674E-03-0.523E-04
 gam= 0.378 trial= 0.469  step= 0.692 mean= 0.469
 gam= 0.375 g(H,U,f)=  0.246E-03 0.649E-05 0.000E+00 ort(H,U,f) =-0.243E-05 0.379E-05 0.000E+00
CGA:  18    -0.479342100758E+03   -0.22636E-03   -0.22623E-03  3584   0.253E-03 0.136E-05
 gam= 0.375 trial= 0.480  step= 0.642 mean= 0.480
 gam= 0.351 g(H,U,f)=  0.852E-04 0.336E-05 0.000E+00 ort(H,U,f) = 0.411E-06 0.418E-05 0.000E+00
CGA:  19    -0.479342182371E+03   -0.81613E-04   -0.81244E-04  3584   0.886E-04 0.459E-05
 gam= 0.351 trial= 0.488  step= 0.667 mean= 0.488
 gam= 0.400 g(H,U,f)=  0.340E-04 0.141E-05 0.000E+00 ort(H,U,f) = 0.856E-07 0.260E-05 0.000E+00
CGA:  20    -0.479342212705E+03   -0.30334E-04   -0.30095E-04  3584   0.354E-04 0.268E-05
 gam= 0.400 trial= 0.497  step= 0.616 mean= 0.497
 gam= 0.609 g(H,U,f)=  0.210E-04 0.539E-06 0.000E+00 ort(H,U,f) =-0.193E-05 0.125E-05 0.000E+00
CGA:  21    -0.479342223907E+03   -0.11202E-04   -0.11243E-04  3584   0.216E-04-0.683E-06
 gam= 0.609 trial= 0.503  step= 0.460 mean= 0.503
 gam= 0.384 g(H,U,f)=  0.814E-05 0.156E-06 0.000E+00 ort(H,U,f) =-0.548E-06 0.562E-06 0.000E+00
CGA:  22    -0.479342228776E+03   -0.48697E-05   -0.48699E-05  3584   0.829E-05 0.137E-07
 gam= 0.384 trial= 0.501  step= 0.590 mean= 0.501
 gam= 0.383 g(H,U,f)=  0.314E-05 0.367E-07 0.000E+00 ort(H,U,f) =-0.387E-06 0.100E-06 0.000E+00
CGA:  23    -0.479342231209E+03   -0.24328E-05   -0.24459E-05  3584   0.318E-05-0.287E-06
 gam= 0.383 trial= 0.505  step= 0.577 mean= 0.505
 gam= 0.404 g(H,U,f)=  0.126E-05 0.193E-07 0.000E+00 ort(H,U,f) =-0.109E-06 0.125E-07 0.000E+00
CGA:  24    -0.479342232091E+03   -0.88206E-06   -0.88561E-06  3584   0.128E-05-0.964E-07
 gam= 0.404 trial= 0.509  step= 0.888 mean= 0.509
 gam= 0.000 g(H,U,f)=  0.174E-05 0.130E-07 0.000E+00 ort(H,U,f) =-0.758E-06-0.155E-08 0.000E+00
CGA:  25    -0.479342232499E+03   -0.40815E-06   -0.55230E-06  3584   0.176E-05-0.759E-06
 gam= 0.000 trial= 0.528  step= 0.272 mean= 0.528
 gam= 0.154 g(H,U,f)=  0.261E-06 0.930E-08 0.000E+00 ort(H,U,f) = 0.932E-07 0.987E-08 0.000E+00
CGA:  26    -0.479342232725E+03   -0.22560E-06   -0.23883E-06  3584   0.270E-06 0.103E-06
 gam= 0.154 trial= 0.515  step= 1.727 mean= 0.515
 gam= 0.000 g(H,U,f)=  0.183E-05 0.176E-08 0.565-184 ort(H,U,f) =-0.549E-06 0.879E-09 0.686-183
CGA:  27    -0.479342232639E+03    0.85518E-07   -0.24695E-06  3584   0.184E-05-0.548E-06
 gam= 0.000 trial= 0.576  step= 0.302 mean= 0.576
 gam= 0.133 g(H,U,f)=  0.244E-06 0.556E-09 0.123-166 ort(H,U,f) = 0.285E-06-0.201E-10 0.855-167
CGA:  28    -0.479342232877E+03   -0.23802E-06   -0.27705E-06  3584   0.244E-06 0.285E-06
 gam= 0.133 trial= 0.562  step= 0.606 mean= 0.562
 gam= 0.000 g(H,U,f)=  0.137E-06 0.413E-09 0.638-132 ort(H,U,f) =-0.138E-06-0.292E-10 0.864-132
CGA:  29    -0.479342232960E+03   -0.82331E-07   -0.85450E-07  3584   0.138E-06-0.138E-06
 gam= 0.000 trial= 0.564  step= 0.192 mean= 0.564
 gam= 0.242 g(H,U,f)=  0.332E-07 0.156E-09 0.330-123 ort(H,U,f) = 0.602E-07 0.208E-09 0.348-123
CGA:  30    -0.479342232962E+03   -0.18590E-08   -0.13209E-07  3584   0.333E-07 0.604E-07
 gam= 0.242 trial= 0.545  step= 0.195 mean= 0.545
   1 F= -.47934223E+03 E0= -.47934223E+03  d E =-.149131-109
Application 22292997 resources: utime ~20979410s, stime ~27896s, Rss ~383920, inblocks ~17783436, outblocks ~10950948
