 vasp.5.4.1 24Jun15 (build Nov 25 2015 16:39:35) complex                        
  
 executed on         CrayXC-Intel date 2016.09.12  05:30:28
 running on   96 total cores
 distrk:  each k-point on   96 cores,    1 groups
 distr:  one band on NCORES_PER_BAND=  24 cores,    4 groups


--------------------------------------------------------------------------------------------------------


 INCAR:
 POTCAR:    PAW_PBE Cd 06Sep2000                  
 POTCAR:    PAW_PBE Te 08Apr2002                  

 ----------------------------------------------------------------------------- 
|                                                                             |
|           W    W    AA    RRRRR   N    N  II  N    N   GGGG   !!!           |
|           W    W   A  A   R    R  NN   N  II  NN   N  G    G  !!!           |
|           W    W  A    A  R    R  N N  N  II  N N  N  G       !!!           |
|           W WW W  AAAAAA  RRRRR   N  N N  II  N  N N  G  GGG   !            |
|           WW  WW  A    A  R   R   N   NN  II  N   NN  G    G                |
|           W    W  A    A  R    R  N    N  II  N    N   GGGG   !!!           |
|                                                                             |
|      For optimal performance we recommend to set                            |
|        NCORE= 4 - approx SQRT( number of cores)                             |
|      NCORE specifies how many cores store one orbital (NPAR=cpu/NCORE).     |
|      This setting can  greatly improve the performance of VASP for DFT.     |
|      The default, NPAR=number of cores might be grossly inefficient         |
|      on modern multi-core architectures or massively parallel machines.     |
|      Do your own testing !!!!                                               |
|      Unfortunately you need to use the default for GW and RPA calculations. |
|      (for HF NCORE is supported but not extensively tested yet)             |
|                                                                             |
 ----------------------------------------------------------------------------- 

 POTCAR:    PAW_PBE Cd 06Sep2000                  
   VRHFIN =Cd : s2 d10                                                          
   LEXCH  = PE                                                                  
   EATOM  =  1293.1815 eV,   95.0462 Ry                                         
                                                                                
   TITEL  = PAW_PBE Cd 06Sep2000                                                
   LULTRA =        F    use ultrasoft PP ?                                      
   IUNSCR =        1    unscreen: 0-lin 1-nonlin 2-no                           
   RPACOR =    2.000    partial core radius                                     
   POMASS =  112.411; ZVAL   =   12.000    mass and valenz                      
   RCORE  =    2.300    outmost cutoff radius                                   
   RWIGS  =    2.980; RWIGS  =    1.577    wigner-seitz radius (au A)           
   ENMAX  =  274.336; ENMIN  =  205.752 eV                                      
   RCLOC  =    2.054    cutoff for local pot                                    
   LCOR   =        T    correct aug charges                                     
   LPAW   =        T    paw PP                                                  
   EAUG   =  456.106                                                            
   DEXC   =    0.000                                                            
   RMAX   =    2.358    core radius for proj-oper                               
   RAUG   =    1.300    factor for augmentation sphere                          
   RDEP   =    2.450    radius for radial grids                                 
   RDEPT  =    1.955    core radius for aug-charge                              
                                                                                
   Atomic configuration                                                         
   12 entries                                                                   
     n  l   j            E        occ.                                          
     1  0  0.50    -26519.7817   2.0000                                         
     2  0  0.50     -3936.9612   2.0000                                         
     2  1  1.50     -3532.2230   6.0000                                         
     3  0  0.50      -733.7908   2.0000                                         
     3  1  1.50      -601.0792   6.0000                                         
     3  2  2.50      -393.5307  10.0000                                         
     4  0  0.50      -105.8977   2.0000                                         
     4  1  1.50       -66.9488   6.0000                                         
     4  2  2.50       -11.7331  10.0000                                         
     5  0  0.50        -5.6592   2.0000                                         
     5  1  0.50        -1.3606   0.0000                                         
     4  3  2.50        -1.3606   0.0000                                         
   Description                                                                  
     l       E           TYP  RCUT    TYP  RCUT                                 
     2    -11.7331479     23  2.300                                             
     2    -13.0937305     23  2.300                                             
     0     -5.6591502     23  2.300                                             
     0     -1.5561433     23  2.300                                             
     1     -2.7211652     23  2.300                                             
     1      8.3548275     23  2.300                                             
  local pseudopotential read in
  partial core-charges read in
  partial kinetic energy density read in
  atomic valenz-charges read in
  non local Contribution for L=           2  read in
    real space projection operators read in
  non local Contribution for L=           2  read in
    real space projection operators read in
  non local Contribution for L=           0  read in
    real space projection operators read in
  non local Contribution for L=           0  read in
    real space projection operators read in
  non local Contribution for L=           1  read in
    real space projection operators read in
  non local Contribution for L=           1  read in
    real space projection operators read in
    PAW grid and wavefunctions read in
 
   number of l-projection  operators is LMAX  =           6
   number of lm-projection operators is LMMAX =          18
 
 POTCAR:    PAW_PBE Te 08Apr2002                  
   VRHFIN =Te: s2p4                                                             
   LEXCH  = PE                                                                  
   EATOM  =   223.2721 eV,   16.4100 Ry                                         
                                                                                
   TITEL  = PAW_PBE Te 08Apr2002                                                
   LULTRA =        F    use ultrasoft PP ?                                      
   IUNSCR =        1    unscreen: 0-lin 1-nonlin 2-no                           
   RPACOR =    2.200    partial core radius                                     
   POMASS =  127.600; ZVAL   =    6.000    mass and valenz                      
   RCORE  =    2.300    outmost cutoff radius                                   
   RWIGS  =    2.900; RWIGS  =    1.535    wigner-seitz radius (au A)           
   ENMAX  =  174.982; ENMIN  =  131.236 eV                                      
   ICORE  =        3    local potential                                         
   LCOR   =        T    correct aug charges                                     
   LPAW   =        T    paw PP                                                  
   EAUG   =  368.792                                                            
   DEXC   =    0.000                                                            
   RMAX   =    2.345    core radius for proj-oper                               
   RAUG   =    1.300    factor for augmentation sphere                          
   RDEP   =    2.397    radius for radial grids                                 
   RDEPT  =    2.174    core radius for aug-charge                              
                                                                                
   Atomic configuration                                                         
   13 entries                                                                   
     n  l   j            E        occ.                                          
     1  0  0.50    -31621.2075   2.0000                                         
     2  0  0.50     -4848.7941   2.0000                                         
     2  1  1.50     -4352.1960   6.0000                                         
     3  0  0.50      -964.9612   2.0000                                         
     3  1  1.50      -803.6179   6.0000                                         
     3  2  2.50      -559.8710  10.0000                                         
     4  0  0.50      -164.3522   2.0000                                         
     4  1  1.50      -114.3756   6.0000                                         
     4  2  2.50       -41.6483  10.0000                                         
     5  0  0.50       -15.1072   2.0000                                         
     5  1  0.50        -5.9526   4.0000                                         
     5  2  1.50        -5.4423   0.0000                                         
     4  3  2.50        -5.4423   0.0000                                         
   Description                                                                  
     l       E           TYP  RCUT    TYP  RCUT                                 
     0    -15.1072389     23  2.300                                             
     0    -16.4678215     23  2.300                                             
     1     -5.9526306     23  2.300                                             
     1     -2.4873968     23  2.300                                             
     2     -5.4423304     23  2.300                                             
     3     -1.3605826     23  2.300                                             
  local pseudopotential read in
  partial core-charges read in
  partial kinetic energy density read in
  atomic valenz-charges read in
  non local Contribution for L=           0  read in
    real space projection operators read in
  non local Contribution for L=           0  read in
    real space projection operators read in
  non local Contribution for L=           1  read in
    real space projection operators read in
  non local Contribution for L=           1  read in
    real space projection operators read in
  non local Contribution for L=           2  read in
    real space projection operators read in
    PAW grid and wavefunctions read in
 
   number of l-projection  operators is LMAX  =           5
   number of lm-projection operators is LMMAX =          13
 

 ----------------------------------------------------------------------------- 
|                                                                             |
|  ADVICE TO THIS USER RUNNING 'VASP/VAMP'   (HEAR YOUR MASTER'S VOICE ...):  |
|                                                                             |
|      You enforced a specific xc-type in the INCAR file,                     |
|      a different type was found on the POTCAR file                          |
|          I HOPE YOU KNOW, WHAT YOU ARE  DOING                               |
|                                                                             |
 ----------------------------------------------------------------------------- 

  PAW_PBE Cd 06Sep2000                  :
 energy of atom  1       EATOM=-1293.1815
 kinetic energy error for atom=    0.0063 (will be added to EATOM!!)
  PAW_PBE Te 08Apr2002                  :
 energy of atom  2       EATOM= -223.2721
 kinetic energy error for atom=    0.0007 (will be added to EATOM!!)
 
 
 POSCAR: CdTe (ICSD, 295K, Rabadanov 2001)       
  positions in direct lattice
  No initial velocities read in
 exchange correlation table for  LEXCH =       14
   RHO(1)=    0.500       N(1)  =     2000
   RHO(2)=  100.500       N(2)  =     4000
 


--------------------------------------------------------------------------------------------------------


 ion  position               nearest neighbor table
   1  0.000  0.000  0.000-   2 2.81   2 2.81   2 2.81   2 2.81
   2  0.250  0.250  0.250-   1 2.81   1 2.81   1 2.81   1 2.81
 

IMPORTANT INFORMATION: All symmetrisations will be switched off!
NOSYMM: (Re-)initialisation of all symmetry stuff for point group C_1.

 
 
 KPOINTS: Automatic mesh                          

Automatic generation of k-mesh.
Space group operators:
 irot       det(A)        alpha          n_x          n_y          n_z        tau_x        tau_y        tau_z
    1     1.000000     0.000000     1.000000     0.000000     0.000000     0.000000     0.000000     0.000000
 
 Subroutine IBZKPT returns following result:
 ===========================================
 
 Found    216 irreducible k-points:
 
 Following reciprocal coordinates:
            Coordinates               Weight
  0.000000  0.000000  0.000000      1.000000
  0.166667  0.000000  0.000000      1.000000
  0.333333  0.000000  0.000000      1.000000
  0.500000  0.000000  0.000000      1.000000
 -0.333333  0.000000  0.000000      1.000000
 -0.166667  0.000000  0.000000      1.000000
  0.000000  0.166667  0.000000      1.000000
  0.166667  0.166667  0.000000      1.000000
  0.333333  0.166667  0.000000      1.000000
  0.500000  0.166667  0.000000      1.000000
 -0.333333  0.166667  0.000000      1.000000
 -0.166667  0.166667  0.000000      1.000000
  0.000000  0.333333  0.000000      1.000000
  0.166667  0.333333  0.000000      1.000000
  0.333333  0.333333  0.000000      1.000000
  0.500000  0.333333  0.000000      1.000000
 -0.333333  0.333333  0.000000      1.000000
 -0.166667  0.333333  0.000000      1.000000
  0.000000  0.500000  0.000000      1.000000
  0.166667  0.500000  0.000000      1.000000
  0.333333  0.500000  0.000000      1.000000
  0.500000  0.500000  0.000000      1.000000
 -0.333333  0.500000  0.000000      1.000000
 -0.166667  0.500000  0.000000      1.000000
  0.000000 -0.333333  0.000000      1.000000
  0.166667 -0.333333  0.000000      1.000000
  0.333333 -0.333333  0.000000      1.000000
  0.500000 -0.333333  0.000000      1.000000
 -0.333333 -0.333333  0.000000      1.000000
 -0.166667 -0.333333  0.000000      1.000000
  0.000000 -0.166667  0.000000      1.000000
  0.166667 -0.166667  0.000000      1.000000
  0.333333 -0.166667  0.000000      1.000000
  0.500000 -0.166667  0.000000      1.000000
 -0.333333 -0.166667  0.000000      1.000000
 -0.166667 -0.166667  0.000000      1.000000
  0.000000  0.000000  0.166667      1.000000
  0.166667  0.000000  0.166667      1.000000
  0.333333  0.000000  0.166667      1.000000
  0.500000  0.000000  0.166667      1.000000
 -0.333333  0.000000  0.166667      1.000000
 -0.166667  0.000000  0.166667      1.000000
  0.000000  0.166667  0.166667      1.000000
  0.166667  0.166667  0.166667      1.000000
  0.333333  0.166667  0.166667      1.000000
  0.500000  0.166667  0.166667      1.000000
 -0.333333  0.166667  0.166667      1.000000
 -0.166667  0.166667  0.166667      1.000000
  0.000000  0.333333  0.166667      1.000000
  0.166667  0.333333  0.166667      1.000000
  0.333333  0.333333  0.166667      1.000000
  0.500000  0.333333  0.166667      1.000000
 -0.333333  0.333333  0.166667      1.000000
 -0.166667  0.333333  0.166667      1.000000
  0.000000  0.500000  0.166667      1.000000
  0.166667  0.500000  0.166667      1.000000
  0.333333  0.500000  0.166667      1.000000
  0.500000  0.500000  0.166667      1.000000
 -0.333333  0.500000  0.166667      1.000000
 -0.166667  0.500000  0.166667      1.000000
  0.000000 -0.333333  0.166667      1.000000
  0.166667 -0.333333  0.166667      1.000000
  0.333333 -0.333333  0.166667      1.000000
  0.500000 -0.333333  0.166667      1.000000
 -0.333333 -0.333333  0.166667      1.000000
 -0.166667 -0.333333  0.166667      1.000000
  0.000000 -0.166667  0.166667      1.000000
  0.166667 -0.166667  0.166667      1.000000
  0.333333 -0.166667  0.166667      1.000000
  0.500000 -0.166667  0.166667      1.000000
 -0.333333 -0.166667  0.166667      1.000000
 -0.166667 -0.166667  0.166667      1.000000
  0.000000  0.000000  0.333333      1.000000
  0.166667  0.000000  0.333333      1.000000
  0.333333  0.000000  0.333333      1.000000
  0.500000  0.000000  0.333333      1.000000
 -0.333333  0.000000  0.333333      1.000000
 -0.166667  0.000000  0.333333      1.000000
  0.000000  0.166667  0.333333      1.000000
  0.166667  0.166667  0.333333      1.000000
  0.333333  0.166667  0.333333      1.000000
  0.500000  0.166667  0.333333      1.000000
 -0.333333  0.166667  0.333333      1.000000
 -0.166667  0.166667  0.333333      1.000000
  0.000000  0.333333  0.333333      1.000000
  0.166667  0.333333  0.333333      1.000000
  0.333333  0.333333  0.333333      1.000000
  0.500000  0.333333  0.333333      1.000000
 -0.333333  0.333333  0.333333      1.000000
 -0.166667  0.333333  0.333333      1.000000
  0.000000  0.500000  0.333333      1.000000
  0.166667  0.500000  0.333333      1.000000
  0.333333  0.500000  0.333333      1.000000
  0.500000  0.500000  0.333333      1.000000
 -0.333333  0.500000  0.333333      1.000000
 -0.166667  0.500000  0.333333      1.000000
  0.000000 -0.333333  0.333333      1.000000
  0.166667 -0.333333  0.333333      1.000000
  0.333333 -0.333333  0.333333      1.000000
  0.500000 -0.333333  0.333333      1.000000
 -0.333333 -0.333333  0.333333      1.000000
 -0.166667 -0.333333  0.333333      1.000000
  0.000000 -0.166667  0.333333      1.000000
  0.166667 -0.166667  0.333333      1.000000
  0.333333 -0.166667  0.333333      1.000000
  0.500000 -0.166667  0.333333      1.000000
 -0.333333 -0.166667  0.333333      1.000000
 -0.166667 -0.166667  0.333333      1.000000
  0.000000  0.000000  0.500000      1.000000
  0.166667  0.000000  0.500000      1.000000
  0.333333  0.000000  0.500000      1.000000
  0.500000  0.000000  0.500000      1.000000
 -0.333333  0.000000  0.500000      1.000000
 -0.166667  0.000000  0.500000      1.000000
  0.000000  0.166667  0.500000      1.000000
  0.166667  0.166667  0.500000      1.000000
  0.333333  0.166667  0.500000      1.000000
  0.500000  0.166667  0.500000      1.000000
 -0.333333  0.166667  0.500000      1.000000
 -0.166667  0.166667  0.500000      1.000000
  0.000000  0.333333  0.500000      1.000000
  0.166667  0.333333  0.500000      1.000000
  0.333333  0.333333  0.500000      1.000000
  0.500000  0.333333  0.500000      1.000000
 -0.333333  0.333333  0.500000      1.000000
 -0.166667  0.333333  0.500000      1.000000
  0.000000  0.500000  0.500000      1.000000
  0.166667  0.500000  0.500000      1.000000
  0.333333  0.500000  0.500000      1.000000
  0.500000  0.500000  0.500000      1.000000
 -0.333333  0.500000  0.500000      1.000000
 -0.166667  0.500000  0.500000      1.000000
  0.000000 -0.333333  0.500000      1.000000
  0.166667 -0.333333  0.500000      1.000000
  0.333333 -0.333333  0.500000      1.000000
  0.500000 -0.333333  0.500000      1.000000
 -0.333333 -0.333333  0.500000      1.000000
 -0.166667 -0.333333  0.500000      1.000000
  0.000000 -0.166667  0.500000      1.000000
  0.166667 -0.166667  0.500000      1.000000
  0.333333 -0.166667  0.500000      1.000000
  0.500000 -0.166667  0.500000      1.000000
 -0.333333 -0.166667  0.500000      1.000000
 -0.166667 -0.166667  0.500000      1.000000
  0.000000  0.000000 -0.333333      1.000000
  0.166667  0.000000 -0.333333      1.000000
  0.333333  0.000000 -0.333333      1.000000
  0.500000  0.000000 -0.333333      1.000000
 -0.333333  0.000000 -0.333333      1.000000
 -0.166667  0.000000 -0.333333      1.000000
  0.000000  0.166667 -0.333333      1.000000
  0.166667  0.166667 -0.333333      1.000000
  0.333333  0.166667 -0.333333      1.000000
  0.500000  0.166667 -0.333333      1.000000
 -0.333333  0.166667 -0.333333      1.000000
 -0.166667  0.166667 -0.333333      1.000000
  0.000000  0.333333 -0.333333      1.000000
  0.166667  0.333333 -0.333333      1.000000
  0.333333  0.333333 -0.333333      1.000000
  0.500000  0.333333 -0.333333      1.000000
 -0.333333  0.333333 -0.333333      1.000000
 -0.166667  0.333333 -0.333333      1.000000
  0.000000  0.500000 -0.333333      1.000000
  0.166667  0.500000 -0.333333      1.000000
  0.333333  0.500000 -0.333333      1.000000
  0.500000  0.500000 -0.333333      1.000000
 -0.333333  0.500000 -0.333333      1.000000
 -0.166667  0.500000 -0.333333      1.000000
  0.000000 -0.333333 -0.333333      1.000000
  0.166667 -0.333333 -0.333333      1.000000
  0.333333 -0.333333 -0.333333      1.000000
  0.500000 -0.333333 -0.333333      1.000000
 -0.333333 -0.333333 -0.333333      1.000000
 -0.166667 -0.333333 -0.333333      1.000000
  0.000000 -0.166667 -0.333333      1.000000
  0.166667 -0.166667 -0.333333      1.000000
  0.333333 -0.166667 -0.333333      1.000000
  0.500000 -0.166667 -0.333333      1.000000
 -0.333333 -0.166667 -0.333333      1.000000
 -0.166667 -0.166667 -0.333333      1.000000
  0.000000  0.000000 -0.166667      1.000000
  0.166667  0.000000 -0.166667      1.000000
  0.333333  0.000000 -0.166667      1.000000
  0.500000  0.000000 -0.166667      1.000000
 -0.333333  0.000000 -0.166667      1.000000
 -0.166667  0.000000 -0.166667      1.000000
  0.000000  0.166667 -0.166667      1.000000
  0.166667  0.166667 -0.166667      1.000000
  0.333333  0.166667 -0.166667      1.000000
  0.500000  0.166667 -0.166667      1.000000
 -0.333333  0.166667 -0.166667      1.000000
 -0.166667  0.166667 -0.166667      1.000000
  0.000000  0.333333 -0.166667      1.000000
  0.166667  0.333333 -0.166667      1.000000
  0.333333  0.333333 -0.166667      1.000000
  0.500000  0.333333 -0.166667      1.000000
 -0.333333  0.333333 -0.166667      1.000000
 -0.166667  0.333333 -0.166667      1.000000
  0.000000  0.500000 -0.166667      1.000000
  0.166667  0.500000 -0.166667      1.000000
  0.333333  0.500000 -0.166667      1.000000
  0.500000  0.500000 -0.166667      1.000000
 -0.333333  0.500000 -0.166667      1.000000
 -0.166667  0.500000 -0.166667      1.000000
  0.000000 -0.333333 -0.166667      1.000000
  0.166667 -0.333333 -0.166667      1.000000
  0.333333 -0.333333 -0.166667      1.000000
  0.500000 -0.333333 -0.166667      1.000000
 -0.333333 -0.333333 -0.166667      1.000000
 -0.166667 -0.333333 -0.166667      1.000000
  0.000000 -0.166667 -0.166667      1.000000
  0.166667 -0.166667 -0.166667      1.000000
  0.333333 -0.166667 -0.166667      1.000000
  0.500000 -0.166667 -0.166667      1.000000
 -0.333333 -0.166667 -0.166667      1.000000
 -0.166667 -0.166667 -0.166667      1.000000
 
 Following cartesian coordinates:
            Coordinates               Weight
  0.000000  0.000000  0.000000      1.000000
  0.166667  0.166667  0.166667      1.000000
  0.333333  0.333333  0.333333      1.000000
  0.500000  0.500000  0.500000      1.000000
 -0.333333 -0.333333 -0.333333      1.000000
 -0.166667 -0.166667 -0.166667      1.000000
  0.166667 -0.166667 -0.166667      1.000000
  0.333333  0.000000  0.000000      1.000000
  0.500000  0.166667  0.166667      1.000000
  0.666667  0.333333  0.333333      1.000000
 -0.166667 -0.500000 -0.500000      1.000000
  0.000000 -0.333333 -0.333333      1.000000
  0.333333 -0.333333 -0.333333      1.000000
  0.500000 -0.166667 -0.166667      1.000000
  0.666667  0.000000  0.000000      1.000000
  0.833333  0.166667  0.166667      1.000000
  0.000000 -0.666667 -0.666667      1.000000
  0.166667 -0.500000 -0.500000      1.000000
  0.500000 -0.500000 -0.500000      1.000000
  0.666667 -0.333333 -0.333333      1.000000
  0.833333 -0.166667 -0.166667      1.000000
  1.000000  0.000000  0.000000      1.000000
  0.166667 -0.833333 -0.833333      1.000000
  0.333333 -0.666667 -0.666667      1.000000
 -0.333333  0.333333  0.333333      1.000000
 -0.166667  0.500000  0.500000      1.000000
  0.000000  0.666667  0.666667      1.000000
  0.166667  0.833333  0.833333      1.000000
 -0.666667  0.000000  0.000000      1.000000
 -0.500000  0.166667  0.166667      1.000000
 -0.166667  0.166667  0.166667      1.000000
  0.000000  0.333333  0.333333      1.000000
  0.166667  0.500000  0.500000      1.000000
  0.333333  0.666667  0.666667      1.000000
 -0.500000 -0.166667 -0.166667      1.000000
 -0.333333  0.000000  0.000000      1.000000
 -0.166667  0.166667 -0.166667      1.000000
  0.000000  0.333333  0.000000      1.000000
  0.166667  0.500000  0.166667      1.000000
  0.333333  0.666667  0.333333      1.000000
 -0.500000 -0.166667 -0.500000      1.000000
 -0.333333  0.000000 -0.333333      1.000000
  0.000000  0.000000 -0.333333      1.000000
  0.166667  0.166667 -0.166667      1.000000
  0.333333  0.333333 -0.000000      1.000000
  0.500000  0.500000  0.166667      1.000000
 -0.333333 -0.333333 -0.666667      1.000000
 -0.166667 -0.166667 -0.500000      1.000000
  0.166667 -0.166667 -0.500000      1.000000
  0.333333  0.000000 -0.333333      1.000000
  0.500000  0.166667 -0.166667      1.000000
  0.666667  0.333333  0.000000      1.000000
 -0.166667 -0.500000 -0.833333      1.000000
 -0.000000 -0.333333 -0.666667      1.000000
  0.333333 -0.333333 -0.666667      1.000000
  0.500000 -0.166667 -0.500000      1.000000
  0.666667 -0.000000 -0.333333      1.000000
  0.833333  0.166667 -0.166667      1.000000
  0.000000 -0.666667 -1.000000      1.000000
  0.166667 -0.500000 -0.833333      1.000000
 -0.500000  0.500000  0.166667      1.000000
 -0.333333  0.666667  0.333333      1.000000
 -0.166667  0.833333  0.500000      1.000000
  0.000000  1.000000  0.666667      1.000000
 -0.833333  0.166667 -0.166667      1.000000
 -0.666667  0.333333  0.000000      1.000000
 -0.333333  0.333333  0.000000      1.000000
 -0.166667  0.500000  0.166667      1.000000
 -0.000000  0.666667  0.333333      1.000000
  0.166667  0.833333  0.500000      1.000000
 -0.666667  0.000000 -0.333333      1.000000
 -0.500000  0.166667 -0.166667      1.000000
 -0.333333  0.333333 -0.333333      1.000000
 -0.166667  0.500000 -0.166667      1.000000
  0.000000  0.666667  0.000000      1.000000
  0.166667  0.833333  0.166667      1.000000
 -0.666667  0.000000 -0.666667      1.000000
 -0.500000  0.166667 -0.500000      1.000000
 -0.166667  0.166667 -0.500000      1.000000
  0.000000  0.333333 -0.333333      1.000000
  0.166667  0.500000 -0.166667      1.000000
  0.333333  0.666667  0.000000      1.000000
 -0.500000 -0.166667 -0.833333      1.000000
 -0.333333 -0.000000 -0.666667      1.000000
  0.000000  0.000000 -0.666667      1.000000
  0.166667  0.166667 -0.500000      1.000000
  0.333333  0.333333 -0.333333      1.000000
  0.500000  0.500000 -0.166667      1.000000
 -0.333333 -0.333333 -1.000000      1.000000
 -0.166667 -0.166667 -0.833333      1.000000
  0.166667 -0.166667 -0.833333      1.000000
  0.333333  0.000000 -0.666667      1.000000
  0.500000  0.166667 -0.500000      1.000000
  0.666667  0.333333 -0.333333      1.000000
 -0.166667 -0.500000 -1.166667      1.000000
 -0.000000 -0.333333 -1.000000      1.000000
 -0.666667  0.666667  0.000000      1.000000
 -0.500000  0.833333  0.166667      1.000000
 -0.333333  1.000000  0.333333      1.000000
 -0.166667  1.166667  0.500000      1.000000
 -1.000000  0.333333 -0.333333      1.000000
 -0.833333  0.500000 -0.166667      1.000000
 -0.500000  0.500000 -0.166667      1.000000
 -0.333333  0.666667  0.000000      1.000000
 -0.166667  0.833333  0.166667      1.000000
 -0.000000  1.000000  0.333333      1.000000
 -0.833333  0.166667 -0.500000      1.000000
 -0.666667  0.333333 -0.333333      1.000000
 -0.500000  0.500000 -0.500000      1.000000
 -0.333333  0.666667 -0.333333      1.000000
 -0.166667  0.833333 -0.166667      1.000000
  0.000000  1.000000  0.000000      1.000000
 -0.833333  0.166667 -0.833333      1.000000
 -0.666667  0.333333 -0.666667      1.000000
 -0.333333  0.333333 -0.666667      1.000000
 -0.166667  0.500000 -0.500000      1.000000
  0.000000  0.666667 -0.333333      1.000000
  0.166667  0.833333 -0.166667      1.000000
 -0.666667  0.000000 -1.000000      1.000000
 -0.500000  0.166667 -0.833333      1.000000
 -0.166667  0.166667 -0.833333      1.000000
  0.000000  0.333333 -0.666667      1.000000
  0.166667  0.500000 -0.500000      1.000000
  0.333333  0.666667 -0.333333      1.000000
 -0.500000 -0.166667 -1.166667      1.000000
 -0.333333 -0.000000 -1.000000      1.000000
  0.000000  0.000000 -1.000000      1.000000
  0.166667  0.166667 -0.833333      1.000000
  0.333333  0.333333 -0.666667      1.000000
  0.500000  0.500000 -0.500000      1.000000
 -0.333333 -0.333333 -1.333333      1.000000
 -0.166667 -0.166667 -1.166667      1.000000
 -0.833333  0.833333 -0.166667      1.000000
 -0.666667  1.000000  0.000000      1.000000
 -0.500000  1.166667  0.166667      1.000000
 -0.333333  1.333333  0.333333      1.000000
 -1.166667  0.500000 -0.500000      1.000000
 -1.000000  0.666667 -0.333333      1.000000
 -0.666667  0.666667 -0.333333      1.000000
 -0.500000  0.833333 -0.166667      1.000000
 -0.333333  1.000000  0.000000      1.000000
 -0.166667  1.166667  0.166667      1.000000
 -1.000000  0.333333 -0.666667      1.000000
 -0.833333  0.500000 -0.500000      1.000000
  0.333333 -0.333333  0.333333      1.000000
  0.500000 -0.166667  0.500000      1.000000
  0.666667  0.000000  0.666667      1.000000
  0.833333  0.166667  0.833333      1.000000
  0.000000 -0.666667  0.000000      1.000000
  0.166667 -0.500000  0.166667      1.000000
  0.500000 -0.500000  0.166667      1.000000
  0.666667 -0.333333  0.333333      1.000000
  0.833333 -0.166667  0.500000      1.000000
  1.000000  0.000000  0.666667      1.000000
  0.166667 -0.833333 -0.166667      1.000000
  0.333333 -0.666667 -0.000000      1.000000
  0.666667 -0.666667  0.000000      1.000000
  0.833333 -0.500000  0.166667      1.000000
  1.000000 -0.333333  0.333333      1.000000
  1.166667 -0.166667  0.500000      1.000000
  0.333333 -1.000000 -0.333333      1.000000
  0.500000 -0.833333 -0.166667      1.000000
  0.833333 -0.833333 -0.166667      1.000000
  1.000000 -0.666667  0.000000      1.000000
  1.166667 -0.500000  0.166667      1.000000
  1.333333 -0.333333  0.333333      1.000000
  0.500000 -1.166667 -0.500000      1.000000
  0.666667 -1.000000 -0.333333      1.000000
  0.000000  0.000000  0.666667      1.000000
  0.166667  0.166667  0.833333      1.000000
  0.333333  0.333333  1.000000      1.000000
  0.500000  0.500000  1.166667      1.000000
 -0.333333 -0.333333  0.333333      1.000000
 -0.166667 -0.166667  0.500000      1.000000
  0.166667 -0.166667  0.500000      1.000000
  0.333333  0.000000  0.666667      1.000000
  0.500000  0.166667  0.833333      1.000000
  0.666667  0.333333  1.000000      1.000000
 -0.166667 -0.500000  0.166667      1.000000
 -0.000000 -0.333333  0.333333      1.000000
  0.166667 -0.166667  0.166667      1.000000
  0.333333  0.000000  0.333333      1.000000
  0.500000  0.166667  0.500000      1.000000
  0.666667  0.333333  0.666667      1.000000
 -0.166667 -0.500000 -0.166667      1.000000
  0.000000 -0.333333  0.000000      1.000000
  0.333333 -0.333333  0.000000      1.000000
  0.500000 -0.166667  0.166667      1.000000
  0.666667 -0.000000  0.333333      1.000000
  0.833333  0.166667  0.500000      1.000000
 -0.000000 -0.666667 -0.333333      1.000000
  0.166667 -0.500000 -0.166667      1.000000
  0.500000 -0.500000 -0.166667      1.000000
  0.666667 -0.333333  0.000000      1.000000
  0.833333 -0.166667  0.166667      1.000000
  1.000000  0.000000  0.333333      1.000000
  0.166667 -0.833333 -0.500000      1.000000
  0.333333 -0.666667 -0.333333      1.000000
  0.666667 -0.666667 -0.333333      1.000000
  0.833333 -0.500000 -0.166667      1.000000
  1.000000 -0.333333 -0.000000      1.000000
  1.166667 -0.166667  0.166667      1.000000
  0.333333 -1.000000 -0.666667      1.000000
  0.500000 -0.833333 -0.500000      1.000000
 -0.166667  0.166667  0.500000      1.000000
 -0.000000  0.333333  0.666667      1.000000
  0.166667  0.500000  0.833333      1.000000
  0.333333  0.666667  1.000000      1.000000
 -0.500000 -0.166667  0.166667      1.000000
 -0.333333 -0.000000  0.333333      1.000000
  0.000000  0.000000  0.333333      1.000000
  0.166667  0.166667  0.500000      1.000000
  0.333333  0.333333  0.666667      1.000000
  0.500000  0.500000  0.833333      1.000000
 -0.333333 -0.333333  0.000000      1.000000
 -0.166667 -0.166667  0.166667      1.000000
 
 
 Subroutine IBZKPT_HF returns following result:
 ==============================================
 
 Found    216 k-points in 1st BZ
 the following    216 k-points will be used (e.g. in the exchange kernel)
 Following reciprocal coordinates:   # in IRBZ
  0.000000  0.000000  0.000000    0.00462963   1 t-inv F
  0.166667  0.000000  0.000000    0.00462963   2 t-inv F
  0.333333  0.000000  0.000000    0.00462963   3 t-inv F
  0.500000  0.000000  0.000000    0.00462963   4 t-inv F
 -0.333333  0.000000  0.000000    0.00462963   5 t-inv F
 -0.166667  0.000000  0.000000    0.00462963   6 t-inv F
  0.000000  0.166667  0.000000    0.00462963   7 t-inv F
  0.166667  0.166667  0.000000    0.00462963   8 t-inv F
  0.333333  0.166667  0.000000    0.00462963   9 t-inv F
  0.500000  0.166667  0.000000    0.00462963  10 t-inv F
 -0.333333  0.166667  0.000000    0.00462963  11 t-inv F
 -0.166667  0.166667  0.000000    0.00462963  12 t-inv F
  0.000000  0.333333  0.000000    0.00462963  13 t-inv F
  0.166667  0.333333  0.000000    0.00462963  14 t-inv F
  0.333333  0.333333  0.000000    0.00462963  15 t-inv F
  0.500000  0.333333  0.000000    0.00462963  16 t-inv F
 -0.333333  0.333333  0.000000    0.00462963  17 t-inv F
 -0.166667  0.333333  0.000000    0.00462963  18 t-inv F
  0.000000  0.500000  0.000000    0.00462963  19 t-inv F
  0.166667  0.500000  0.000000    0.00462963  20 t-inv F
  0.333333  0.500000  0.000000    0.00462963  21 t-inv F
  0.500000  0.500000  0.000000    0.00462963  22 t-inv F
 -0.333333  0.500000  0.000000    0.00462963  23 t-inv F
 -0.166667  0.500000  0.000000    0.00462963  24 t-inv F
  0.000000 -0.333333  0.000000    0.00462963  25 t-inv F
  0.166667 -0.333333  0.000000    0.00462963  26 t-inv F
  0.333333 -0.333333  0.000000    0.00462963  27 t-inv F
  0.500000 -0.333333  0.000000    0.00462963  28 t-inv F
 -0.333333 -0.333333  0.000000    0.00462963  29 t-inv F
 -0.166667 -0.333333  0.000000    0.00462963  30 t-inv F
  0.000000 -0.166667  0.000000    0.00462963  31 t-inv F
  0.166667 -0.166667  0.000000    0.00462963  32 t-inv F
  0.333333 -0.166667  0.000000    0.00462963  33 t-inv F
  0.500000 -0.166667  0.000000    0.00462963  34 t-inv F
 -0.333333 -0.166667  0.000000    0.00462963  35 t-inv F
 -0.166667 -0.166667  0.000000    0.00462963  36 t-inv F
  0.000000  0.000000  0.166667    0.00462963  37 t-inv F
  0.166667  0.000000  0.166667    0.00462963  38 t-inv F
  0.333333  0.000000  0.166667    0.00462963  39 t-inv F
  0.500000  0.000000  0.166667    0.00462963  40 t-inv F
 -0.333333  0.000000  0.166667    0.00462963  41 t-inv F
 -0.166667  0.000000  0.166667    0.00462963  42 t-inv F
  0.000000  0.166667  0.166667    0.00462963  43 t-inv F
  0.166667  0.166667  0.166667    0.00462963  44 t-inv F
  0.333333  0.166667  0.166667    0.00462963  45 t-inv F
  0.500000  0.166667  0.166667    0.00462963  46 t-inv F
 -0.333333  0.166667  0.166667    0.00462963  47 t-inv F
 -0.166667  0.166667  0.166667    0.00462963  48 t-inv F
  0.000000  0.333333  0.166667    0.00462963  49 t-inv F
  0.166667  0.333333  0.166667    0.00462963  50 t-inv F
  0.333333  0.333333  0.166667    0.00462963  51 t-inv F
  0.500000  0.333333  0.166667    0.00462963  52 t-inv F
 -0.333333  0.333333  0.166667    0.00462963  53 t-inv F
 -0.166667  0.333333  0.166667    0.00462963  54 t-inv F
  0.000000  0.500000  0.166667    0.00462963  55 t-inv F
  0.166667  0.500000  0.166667    0.00462963  56 t-inv F
  0.333333  0.500000  0.166667    0.00462963  57 t-inv F
  0.500000  0.500000  0.166667    0.00462963  58 t-inv F
 -0.333333  0.500000  0.166667    0.00462963  59 t-inv F
 -0.166667  0.500000  0.166667    0.00462963  60 t-inv F
  0.000000 -0.333333  0.166667    0.00462963  61 t-inv F
  0.166667 -0.333333  0.166667    0.00462963  62 t-inv F
  0.333333 -0.333333  0.166667    0.00462963  63 t-inv F
  0.500000 -0.333333  0.166667    0.00462963  64 t-inv F
 -0.333333 -0.333333  0.166667    0.00462963  65 t-inv F
 -0.166667 -0.333333  0.166667    0.00462963  66 t-inv F
  0.000000 -0.166667  0.166667    0.00462963  67 t-inv F
  0.166667 -0.166667  0.166667    0.00462963  68 t-inv F
  0.333333 -0.166667  0.166667    0.00462963  69 t-inv F
  0.500000 -0.166667  0.166667    0.00462963  70 t-inv F
 -0.333333 -0.166667  0.166667    0.00462963  71 t-inv F
 -0.166667 -0.166667  0.166667    0.00462963  72 t-inv F
  0.000000  0.000000  0.333333    0.00462963  73 t-inv F
  0.166667  0.000000  0.333333    0.00462963  74 t-inv F
  0.333333  0.000000  0.333333    0.00462963  75 t-inv F
  0.500000  0.000000  0.333333    0.00462963  76 t-inv F
 -0.333333  0.000000  0.333333    0.00462963  77 t-inv F
 -0.166667  0.000000  0.333333    0.00462963  78 t-inv F
  0.000000  0.166667  0.333333    0.00462963  79 t-inv F
  0.166667  0.166667  0.333333    0.00462963  80 t-inv F
  0.333333  0.166667  0.333333    0.00462963  81 t-inv F
  0.500000  0.166667  0.333333    0.00462963  82 t-inv F
 -0.333333  0.166667  0.333333    0.00462963  83 t-inv F
 -0.166667  0.166667  0.333333    0.00462963  84 t-inv F
  0.000000  0.333333  0.333333    0.00462963  85 t-inv F
  0.166667  0.333333  0.333333    0.00462963  86 t-inv F
  0.333333  0.333333  0.333333    0.00462963  87 t-inv F
  0.500000  0.333333  0.333333    0.00462963  88 t-inv F
 -0.333333  0.333333  0.333333    0.00462963  89 t-inv F
 -0.166667  0.333333  0.333333    0.00462963  90 t-inv F
  0.000000  0.500000  0.333333    0.00462963  91 t-inv F
  0.166667  0.500000  0.333333    0.00462963  92 t-inv F
  0.333333  0.500000  0.333333    0.00462963  93 t-inv F
  0.500000  0.500000  0.333333    0.00462963  94 t-inv F
 -0.333333  0.500000  0.333333    0.00462963  95 t-inv F
 -0.166667  0.500000  0.333333    0.00462963  96 t-inv F
  0.000000 -0.333333  0.333333    0.00462963  97 t-inv F
  0.166667 -0.333333  0.333333    0.00462963  98 t-inv F
  0.333333 -0.333333  0.333333    0.00462963  99 t-inv F
  0.500000 -0.333333  0.333333    0.00462963 100 t-inv F
 -0.333333 -0.333333  0.333333    0.00462963 101 t-inv F
 -0.166667 -0.333333  0.333333    0.00462963 102 t-inv F
  0.000000 -0.166667  0.333333    0.00462963 103 t-inv F
  0.166667 -0.166667  0.333333    0.00462963 104 t-inv F
  0.333333 -0.166667  0.333333    0.00462963 105 t-inv F
  0.500000 -0.166667  0.333333    0.00462963 106 t-inv F
 -0.333333 -0.166667  0.333333    0.00462963 107 t-inv F
 -0.166667 -0.166667  0.333333    0.00462963 108 t-inv F
  0.000000  0.000000  0.500000    0.00462963 109 t-inv F
  0.166667  0.000000  0.500000    0.00462963 110 t-inv F
  0.333333  0.000000  0.500000    0.00462963 111 t-inv F
  0.500000  0.000000  0.500000    0.00462963 112 t-inv F
 -0.333333  0.000000  0.500000    0.00462963 113 t-inv F
 -0.166667  0.000000  0.500000    0.00462963 114 t-inv F
  0.000000  0.166667  0.500000    0.00462963 115 t-inv F
  0.166667  0.166667  0.500000    0.00462963 116 t-inv F
  0.333333  0.166667  0.500000    0.00462963 117 t-inv F
  0.500000  0.166667  0.500000    0.00462963 118 t-inv F
 -0.333333  0.166667  0.500000    0.00462963 119 t-inv F
 -0.166667  0.166667  0.500000    0.00462963 120 t-inv F
  0.000000  0.333333  0.500000    0.00462963 121 t-inv F
  0.166667  0.333333  0.500000    0.00462963 122 t-inv F
  0.333333  0.333333  0.500000    0.00462963 123 t-inv F
  0.500000  0.333333  0.500000    0.00462963 124 t-inv F
 -0.333333  0.333333  0.500000    0.00462963 125 t-inv F
 -0.166667  0.333333  0.500000    0.00462963 126 t-inv F
  0.000000  0.500000  0.500000    0.00462963 127 t-inv F
  0.166667  0.500000  0.500000    0.00462963 128 t-inv F
  0.333333  0.500000  0.500000    0.00462963 129 t-inv F
  0.500000  0.500000  0.500000    0.00462963 130 t-inv F
 -0.333333  0.500000  0.500000    0.00462963 131 t-inv F
 -0.166667  0.500000  0.500000    0.00462963 132 t-inv F
  0.000000 -0.333333  0.500000    0.00462963 133 t-inv F
  0.166667 -0.333333  0.500000    0.00462963 134 t-inv F
  0.333333 -0.333333  0.500000    0.00462963 135 t-inv F
  0.500000 -0.333333  0.500000    0.00462963 136 t-inv F
 -0.333333 -0.333333  0.500000    0.00462963 137 t-inv F
 -0.166667 -0.333333  0.500000    0.00462963 138 t-inv F
  0.000000 -0.166667  0.500000    0.00462963 139 t-inv F
  0.166667 -0.166667  0.500000    0.00462963 140 t-inv F
  0.333333 -0.166667  0.500000    0.00462963 141 t-inv F
  0.500000 -0.166667  0.500000    0.00462963 142 t-inv F
 -0.333333 -0.166667  0.500000    0.00462963 143 t-inv F
 -0.166667 -0.166667  0.500000    0.00462963 144 t-inv F
  0.000000  0.000000 -0.333333    0.00462963 145 t-inv F
  0.166667  0.000000 -0.333333    0.00462963 146 t-inv F
  0.333333  0.000000 -0.333333    0.00462963 147 t-inv F
  0.500000  0.000000 -0.333333    0.00462963 148 t-inv F
 -0.333333  0.000000 -0.333333    0.00462963 149 t-inv F
 -0.166667  0.000000 -0.333333    0.00462963 150 t-inv F
  0.000000  0.166667 -0.333333    0.00462963 151 t-inv F
  0.166667  0.166667 -0.333333    0.00462963 152 t-inv F
  0.333333  0.166667 -0.333333    0.00462963 153 t-inv F
  0.500000  0.166667 -0.333333    0.00462963 154 t-inv F
 -0.333333  0.166667 -0.333333    0.00462963 155 t-inv F
 -0.166667  0.166667 -0.333333    0.00462963 156 t-inv F
  0.000000  0.333333 -0.333333    0.00462963 157 t-inv F
  0.166667  0.333333 -0.333333    0.00462963 158 t-inv F
  0.333333  0.333333 -0.333333    0.00462963 159 t-inv F
  0.500000  0.333333 -0.333333    0.00462963 160 t-inv F
 -0.333333  0.333333 -0.333333    0.00462963 161 t-inv F
 -0.166667  0.333333 -0.333333    0.00462963 162 t-inv F
  0.000000  0.500000 -0.333333    0.00462963 163 t-inv F
  0.166667  0.500000 -0.333333    0.00462963 164 t-inv F
  0.333333  0.500000 -0.333333    0.00462963 165 t-inv F
  0.500000  0.500000 -0.333333    0.00462963 166 t-inv F
 -0.333333  0.500000 -0.333333    0.00462963 167 t-inv F
 -0.166667  0.500000 -0.333333    0.00462963 168 t-inv F
  0.000000 -0.333333 -0.333333    0.00462963 169 t-inv F
  0.166667 -0.333333 -0.333333    0.00462963 170 t-inv F
  0.333333 -0.333333 -0.333333    0.00462963 171 t-inv F
  0.500000 -0.333333 -0.333333    0.00462963 172 t-inv F
 -0.333333 -0.333333 -0.333333    0.00462963 173 t-inv F
 -0.166667 -0.333333 -0.333333    0.00462963 174 t-inv F
  0.000000 -0.166667 -0.333333    0.00462963 175 t-inv F
  0.166667 -0.166667 -0.333333    0.00462963 176 t-inv F
  0.333333 -0.166667 -0.333333    0.00462963 177 t-inv F
  0.500000 -0.166667 -0.333333    0.00462963 178 t-inv F
 -0.333333 -0.166667 -0.333333    0.00462963 179 t-inv F
 -0.166667 -0.166667 -0.333333    0.00462963 180 t-inv F
  0.000000  0.000000 -0.166667    0.00462963 181 t-inv F
  0.166667  0.000000 -0.166667    0.00462963 182 t-inv F
  0.333333  0.000000 -0.166667    0.00462963 183 t-inv F
  0.500000  0.000000 -0.166667    0.00462963 184 t-inv F
 -0.333333  0.000000 -0.166667    0.00462963 185 t-inv F
 -0.166667  0.000000 -0.166667    0.00462963 186 t-inv F
  0.000000  0.166667 -0.166667    0.00462963 187 t-inv F
  0.166667  0.166667 -0.166667    0.00462963 188 t-inv F
  0.333333  0.166667 -0.166667    0.00462963 189 t-inv F
  0.500000  0.166667 -0.166667    0.00462963 190 t-inv F
 -0.333333  0.166667 -0.166667    0.00462963 191 t-inv F
 -0.166667  0.166667 -0.166667    0.00462963 192 t-inv F
  0.000000  0.333333 -0.166667    0.00462963 193 t-inv F
  0.166667  0.333333 -0.166667    0.00462963 194 t-inv F
  0.333333  0.333333 -0.166667    0.00462963 195 t-inv F
  0.500000  0.333333 -0.166667    0.00462963 196 t-inv F
 -0.333333  0.333333 -0.166667    0.00462963 197 t-inv F
 -0.166667  0.333333 -0.166667    0.00462963 198 t-inv F
  0.000000  0.500000 -0.166667    0.00462963 199 t-inv F
  0.166667  0.500000 -0.166667    0.00462963 200 t-inv F
  0.333333  0.500000 -0.166667    0.00462963 201 t-inv F
  0.500000  0.500000 -0.166667    0.00462963 202 t-inv F
 -0.333333  0.500000 -0.166667    0.00462963 203 t-inv F
 -0.166667  0.500000 -0.166667    0.00462963 204 t-inv F
  0.000000 -0.333333 -0.166667    0.00462963 205 t-inv F
  0.166667 -0.333333 -0.166667    0.00462963 206 t-inv F
  0.333333 -0.333333 -0.166667    0.00462963 207 t-inv F
  0.500000 -0.333333 -0.166667    0.00462963 208 t-inv F
 -0.333333 -0.333333 -0.166667    0.00462963 209 t-inv F
 -0.166667 -0.333333 -0.166667    0.00462963 210 t-inv F
  0.000000 -0.166667 -0.166667    0.00462963 211 t-inv F
  0.166667 -0.166667 -0.166667    0.00462963 212 t-inv F
  0.333333 -0.166667 -0.166667    0.00462963 213 t-inv F
  0.500000 -0.166667 -0.166667    0.00462963 214 t-inv F
 -0.333333 -0.166667 -0.166667    0.00462963 215 t-inv F
 -0.166667 -0.166667 -0.166667    0.00462963 216 t-inv F


--------------------------------------------------------------------------------------------------------




 Dimension of arrays:
   k-points           NKPTS =    216   k-points in BZ     NKDIM =    216   number of bands    NBANDS=     28
   number of dos      NEDOS =    301   number of ions     NIONS =      2
   non local maximal  LDIM  =      6   non local SUM 2l+1 LMDIM =     18
   total plane-waves  NPLWV =  46656
   max r-space proj   IRMAX =      1   max aug-charges    IRDMAX=  40037
   dimension x,y,z NGX =    36 NGY =   36 NGZ =   36
   dimension x,y,z NGXF=    72 NGYF=   72 NGZF=   72
   support grid    NGXF=    72 NGYF=   72 NGZF=   72
   ions per type =               1   1
 NGX,Y,Z   is equivalent  to a cutoff of  13.06, 13.06, 13.06 a.u.
 NGXF,Y,Z  is equivalent  to a cutoff of  26.11, 26.11, 26.11 a.u.


 I would recommend the setting:
   dimension x,y,z NGX =    33 NGY =   33 NGZ =   33
 SYSTEM =  Hybrid SOC self-consistent (CdTe: 216 K 
 POSCAR =  CdTe (ICSD, 295K, Rabadanov 2001)       

 Startparameter for this run:
   NWRITE =      2    write-flag & timer
   PREC   = accura    normal or accurate (medium, high low for compatibility)
   ISTART =      0    job   : 0-new  1-cont  2-samecut
   ICHARG =      2    charge: 1-file 2-atom 10-const
   ISPIN  =      1    spin polarized calculation?
   LNONCOLLINEAR =      T non collinear calculations
   LSORBIT =      T    spin-orbit coupling
   INIWAV =      1    electr: 0-lowe 1-rand  2-diag
   LASPH  =      F    aspherical Exc in radial PAW
   METAGGA=      F    non-selfconsistent MetaGGA calc.

 Electronic Relaxation 1
   ENCUT  =  500.0 eV  36.75 Ry    6.06 a.u.   8.36  8.36  8.36*2*pi/ulx,y,z
   ENINI  =  500.0     initial cutoff
   ENAUG  =  456.1 eV  augmentation charge cutoff
   NELM   =     60;   NELMIN=  2; NELMDL= -5     # of ELM steps 
   EDIFF  = 0.1E-05   stopping-criterion for ELM
   LREAL  =      F    real-space projection
   NLSPLINE    = F    spline interpolate recip. space projectors
   LCOMPAT=      F    compatible to vasp.4.4
   GGA_COMPAT  = T    GGA compatible to vasp.4.4-vasp.4.6
   LMAXPAW     = -100 max onsite density
   LMAXMIX     =    2 max onsite mixed and CHGCAR
   VOSKOWN=      0    Vosko Wilk Nusair interpolation
   ROPT   =    0.00000   0.00000
 Ionic relaxation
   EDIFFG = 0.1E-04   stopping-criterion for IOM
   NSW    =      0    number of steps for IOM
   NBLOCK =      1;   KBLOCK =      1    inner block; outer block 
   IBRION =     -1    ionic relax: 0-MD 1-quasi-New 2-CG
   NFREE  =      0    steps in history (QN), initial steepest desc. (CG)
   ISIF   =      0    stress and relaxation
   IWAVPR =     10    prediction:  0-non 1-charg 2-wave 3-comb
   ISYM   =      0    0-nonsym 1-usesym 2-fastsym
   LCORR  =      T    Harris-Foulkes like correction to forces

   POTIM  = 0.5000    time-step for ionic-motion
   TEIN   =    0.0    initial temperature
   TEBEG  =    0.0;   TEEND  =   0.0 temperature during run
   SMASS  =  -3.00    Nose mass-parameter (am)
   estimated Nose-frequenzy (Omega)   =  0.10E-29 period in steps =****** mass=  -0.480E-27a.u.
   SCALEE = 1.0000    scale energy and forces
   NPACO  =    256;   APACO  = 16.0  distance and # of slots for P.C.
   PSTRESS=    0.0 pullay stress

  Mass of Ions in am
   POMASS = 112.41127.60
  Ionic Valenz
   ZVAL   =  12.00  6.00
  Atomic Wigner-Seitz radii
   RWIGS  =  -1.00 -1.00
  virtual crystal weights 
   VCA    =   1.00  1.00
   NELECT =      18.0000    total number of electrons
   NUPDOWN=      -1.0000    fix difference up-down

 DOS related values:
   EMIN   =  10.00;   EMAX   =-10.00  energy-range for DOS
   EFERMI =   0.00
   ISMEAR =     0;   SIGMA  =   0.00  broadening in eV -4-tet -1-fermi 0-gaus

 Electronic relaxation 2 (details)
   IALGO  =     58    algorithm
   LDIAG  =      T    sub-space diagonalisation (order eigenvalues)
   LSUBROT=      F    optimize rotation matrix (better conditioning)
   TURBO    =      0    0=normal 1=particle mesh
   IRESTART =      0    0=no restart 2=restart with 2 vectors
   NREBOOT  =      0    no. of reboots
   NMIN     =      0    reboot dimension
   EREF     =   0.00    reference energy to select bands
   IMIX   =      4    mixing-type and parameters
     AMIX     =   0.40;   BMIX     =  1.00
     AMIX_MAG =   1.60;   BMIX_MAG =  1.00
     AMIN     =   0.10
     WC   =   100.;   INIMIX=   1;  MIXPRE=   1;  MAXMIX= -45

 Intra band minimization:
   WEIMIN = 0.0000     energy-eigenvalue tresh-hold
   EBREAK =  0.89E-08  absolut break condition
   DEPER  =   0.30     relativ break condition  

   TIME   =   0.40     timestep for ELM

  volume/ion in A,a.u.               =      34.05       229.81
  Fermi-wavevector in a.u.,A,eV,Ry     =   1.050581  1.985311 15.017042  1.103721
  Thomas-Fermi vector in A             =   2.185590
 
 Write flags
   LWAVE  =      F    write WAVECAR
   LCHARG =      F    write CHGCAR
   LVTOT  =      F    write LOCPOT, total local potential
   LVHAR  =      F    write LOCPOT, Hartree potential only
   LELF   =      F    write electronic localiz. function (ELF)
   LORBIT =     10    0 simple, 1 ext, 2 COOP (PROOUT)


 Dipole corrections
   LMONO  =      F    monopole corrections only (constant potential shift)
   LDIPOL =      F    correct potential (dipole corrections)
   IDIPOL =      0    1-x, 2-y, 3-z, 4-all directions 
   EPSILON=  1.0000000 bulk dielectric constant

 Core level calculations are selected ICORELEVEL =  1
 Exchange correlation treatment:
   GGA     =    PS    GGA type
   LEXCH   =    14    internal setting for exchange type
   VOSKOWN=      0    Vosko Wilk Nusair interpolation
   EXXOEP  =     0    0=HF, 1=EXX-LHF (local Hartree Fock) 2=EXX OEP
   LHFCALC =     T    Hartree Fock is set to
   LSYMGRAD=     F    symmetrize gradient (conserves proper symmetry)
   PRECFOCK=fast      Normal, Fast or Accurate (Low or Medium for compatibility)
   LRHFCALC=     F    long range Hartree Fock
   LRSCOR  =     F    long range correlation only (use DFT for short range part)
   LTHOMAS =     F    Thomas Fermi screening in HF
   LMODELHF=     F    short range full HF, long range fraction AEXX
   ENCUT4O =  -1.0   cutoff for four orbital integrals eV
   LMAXFOCK=     4    L truncation for augmentation on plane wave grid
   LMAXFOCKAE=  -1    L truncation for all-electron charge restoration on plane wave grid
   NMAXFOCKAE=   1    number of basis functions for all-electron charge restoration
   LFOCKAEDFT=     F  apply the AE augmentation even for DFT
   NKREDX  =     1    reduce k-point grid by
   NKREDY  =     1    reduce k-point grid by
   NKREDZ  =     1    reduce k-point grid by
   SHIFTRED=     F    shift reduced grid of Gamma
   HFKIDENT=     F    idential grid for each k-point
   ODDONLY =     F    use only odd q-grid points
   EVENONLY=     F    use only even q-grid points
   HFALPHA =   -1.0000 decay constant for conv. correction
   MCALPHA =    0.0000 extent of test-charge in conv. correction in multipole expansion
   AEXX    =    0.2500 exact exchange contribution
   HFSCREEN=    0.2070 screening length (either q_TF or 0.3 A-1)
   HFSCREENC=   0.2070 screening length for correlation (either q_TF or 0.3 A-1)
   HFRCUT  =    0.0000 spherical cutoff for potential kernel
   ALDAX   =    0.7500 LDA exchange part
   AGGAX   =    0.7500 GGA exchange part
   ALDAC   =    1.0000 LDA correlation
   AGGAC   =    1.0000 GGA correlation
   NBANDSGWLOW=     1    first orbital included in HF term
   ENCUTFOCK=  -1.0 apply spherical cutoff to Coloumb kernel
 Linear response parameters
   LEPSILON=     F    determine dielectric tensor
   LRPA    =     F    only Hartree local field effects (RPA)
   LNABLA  =     F    use nabla operator in PAW spheres
   LVEL    =     F    velocity operator in full k-point grid
   LINTERFAST=   F  fast interpolation
   KINTER  =     0    interpolate to denser k-point grid
   CSHIFT  =0.1000    complex shift for real part using Kramers Kronig
   OMEGAMAX=  -1.0    maximum frequency
   DEG_THRESHOLD= 0.2000000E-02 threshold for treating states as degnerate
   RTIME   =    0.100 relaxation time in fs

 Orbital magnetization related:
   ORBITALMAG=     F  switch on orbital magnetization
   LCHIMAG   =     F  perturbation theory with respect to B field
   DQ        =  0.001000  dq finite difference perturbation B field



--------------------------------------------------------------------------------------------------------


 Static calculation
 charge density and potential will be updated during run
 non collinear spin polarized calculation
 Conjugate gradient for all bands (Freysoldt, et al. PRB 79, 241103 (2009))
 preconditioned conjugated gradient                                        
 perform sub-space diagonalisation
    before iterative eigenvector-optimisation
 modified Broyden-mixing scheme, WC =      100.0
 initial mixing is a Kerker type mixing with AMIX =  0.4000 and BMIX =      1.0000
 Hartree-type preconditioning will be used
 using additional bands           19
 reciprocal scheme for non local part
 use partial core corrections
 no Harris-corrections to forces 
 use gradient corrections 
 use of overlap-Matrix (Vanderbilt PP)
 Gauss-broadening in eV      SIGMA  =   0.00


--------------------------------------------------------------------------------------------------------


  energy-cutoff  :      500.00
  volume of cell :       68.11
      direct lattice vectors                 reciprocal lattice vectors
     3.241350000  3.241350000  0.000000000     0.154256714  0.154256714  0.154256714
     3.241350000  0.000000000 -3.241350000     0.154256714 -0.154256714 -0.154256714
     0.000000000  3.241350000 -3.241350000    -0.154256714  0.154256714 -0.154256714

  length of vectors
     4.583961130  4.583961130  4.583961130     0.267180466  0.267180466  0.267180466


 
 k-points in units of 2pi/SCALE and weight: Automatic mesh                          
   0.00000000  0.00000000  0.00000000       0.005
   0.16666667  0.16666667  0.16666667       0.005
   0.33333333  0.33333333  0.33333333       0.005
   0.50000000  0.50000000  0.50000000       0.005
  -0.33333333 -0.33333333 -0.33333333       0.005
  -0.16666667 -0.16666667 -0.16666667       0.005
   0.16666667 -0.16666667 -0.16666667       0.005
   0.33333333  0.00000000  0.00000000       0.005
   0.50000000  0.16666667  0.16666667       0.005
   0.66666667  0.33333333  0.33333333       0.005
  -0.16666667 -0.50000000 -0.50000000       0.005
   0.00000000 -0.33333333 -0.33333333       0.005
   0.33333333 -0.33333333 -0.33333333       0.005
   0.50000000 -0.16666667 -0.16666667       0.005
   0.66666667  0.00000000  0.00000000       0.005
   0.83333333  0.16666667  0.16666667       0.005
   0.00000000 -0.66666667 -0.66666667       0.005
   0.16666667 -0.50000000 -0.50000000       0.005
   0.50000000 -0.50000000 -0.50000000       0.005
   0.66666667 -0.33333333 -0.33333333       0.005
   0.83333333 -0.16666667 -0.16666667       0.005
   1.00000000  0.00000000  0.00000000       0.005
   0.16666667 -0.83333333 -0.83333333       0.005
   0.33333333 -0.66666667 -0.66666667       0.005
  -0.33333333  0.33333333  0.33333333       0.005
  -0.16666667  0.50000000  0.50000000       0.005
   0.00000000  0.66666667  0.66666667       0.005
   0.16666667  0.83333333  0.83333333       0.005
  -0.66666667  0.00000000  0.00000000       0.005
  -0.50000000  0.16666667  0.16666667       0.005
  -0.16666667  0.16666667  0.16666667       0.005
   0.00000000  0.33333333  0.33333333       0.005
   0.16666667  0.50000000  0.50000000       0.005
   0.33333333  0.66666667  0.66666667       0.005
  -0.50000000 -0.16666667 -0.16666667       0.005
  -0.33333333  0.00000000  0.00000000       0.005
  -0.16666667  0.16666667 -0.16666667       0.005
   0.00000000  0.33333333  0.00000000       0.005
   0.16666667  0.50000000  0.16666667       0.005
   0.33333333  0.66666667  0.33333333       0.005
  -0.50000000 -0.16666667 -0.50000000       0.005
  -0.33333333  0.00000000 -0.33333333       0.005
   0.00000000  0.00000000 -0.33333333       0.005
   0.16666667  0.16666667 -0.16666667       0.005
   0.33333333  0.33333333 -0.00000000       0.005
   0.50000000  0.50000000  0.16666667       0.005
  -0.33333333 -0.33333333 -0.66666667       0.005
  -0.16666667 -0.16666667 -0.50000000       0.005
   0.16666667 -0.16666667 -0.50000000       0.005
   0.33333333  0.00000000 -0.33333333       0.005
   0.50000000  0.16666667 -0.16666667       0.005
   0.66666667  0.33333333  0.00000000       0.005
  -0.16666667 -0.50000000 -0.83333333       0.005
  -0.00000000 -0.33333333 -0.66666667       0.005
   0.33333333 -0.33333333 -0.66666667       0.005
   0.50000000 -0.16666667 -0.50000000       0.005
   0.66666667 -0.00000000 -0.33333333       0.005
   0.83333333  0.16666667 -0.16666667       0.005
   0.00000000 -0.66666667 -1.00000000       0.005
   0.16666667 -0.50000000 -0.83333333       0.005
  -0.50000000  0.50000000  0.16666667       0.005
  -0.33333333  0.66666667  0.33333333       0.005
  -0.16666667  0.83333333  0.50000000       0.005
   0.00000000  1.00000000  0.66666667       0.005
  -0.83333333  0.16666667 -0.16666667       0.005
  -0.66666667  0.33333333  0.00000000       0.005
  -0.33333333  0.33333333  0.00000000       0.005
  -0.16666667  0.50000000  0.16666667       0.005
  -0.00000000  0.66666667  0.33333333       0.005
   0.16666667  0.83333333  0.50000000       0.005
  -0.66666667  0.00000000 -0.33333333       0.005
  -0.50000000  0.16666667 -0.16666667       0.005
  -0.33333333  0.33333333 -0.33333333       0.005
  -0.16666667  0.50000000 -0.16666667       0.005
   0.00000000  0.66666667  0.00000000       0.005
   0.16666667  0.83333333  0.16666667       0.005
  -0.66666667  0.00000000 -0.66666667       0.005
  -0.50000000  0.16666667 -0.50000000       0.005
  -0.16666667  0.16666667 -0.50000000       0.005
   0.00000000  0.33333333 -0.33333333       0.005
   0.16666667  0.50000000 -0.16666667       0.005
   0.33333333  0.66666667  0.00000000       0.005
  -0.50000000 -0.16666667 -0.83333333       0.005
  -0.33333333 -0.00000000 -0.66666667       0.005
   0.00000000  0.00000000 -0.66666667       0.005
   0.16666667  0.16666667 -0.50000000       0.005
   0.33333333  0.33333333 -0.33333333       0.005
   0.50000000  0.50000000 -0.16666667       0.005
  -0.33333333 -0.33333333 -1.00000000       0.005
  -0.16666667 -0.16666667 -0.83333333       0.005
   0.16666667 -0.16666667 -0.83333333       0.005
   0.33333333  0.00000000 -0.66666667       0.005
   0.50000000  0.16666667 -0.50000000       0.005
   0.66666667  0.33333333 -0.33333333       0.005
  -0.16666667 -0.50000000 -1.16666667       0.005
  -0.00000000 -0.33333333 -1.00000000       0.005
  -0.66666667  0.66666667  0.00000000       0.005
  -0.50000000  0.83333333  0.16666667       0.005
  -0.33333333  1.00000000  0.33333333       0.005
  -0.16666667  1.16666667  0.50000000       0.005
  -1.00000000  0.33333333 -0.33333333       0.005
  -0.83333333  0.50000000 -0.16666667       0.005
  -0.50000000  0.50000000 -0.16666667       0.005
  -0.33333333  0.66666667  0.00000000       0.005
  -0.16666667  0.83333333  0.16666667       0.005
  -0.00000000  1.00000000  0.33333333       0.005
  -0.83333333  0.16666667 -0.50000000       0.005
  -0.66666667  0.33333333 -0.33333333       0.005
  -0.50000000  0.50000000 -0.50000000       0.005
  -0.33333333  0.66666667 -0.33333333       0.005
  -0.16666667  0.83333333 -0.16666667       0.005
   0.00000000  1.00000000  0.00000000       0.005
  -0.83333333  0.16666667 -0.83333333       0.005
  -0.66666667  0.33333333 -0.66666667       0.005
  -0.33333333  0.33333333 -0.66666667       0.005
  -0.16666667  0.50000000 -0.50000000       0.005
   0.00000000  0.66666667 -0.33333333       0.005
   0.16666667  0.83333333 -0.16666667       0.005
  -0.66666667  0.00000000 -1.00000000       0.005
  -0.50000000  0.16666667 -0.83333333       0.005
  -0.16666667  0.16666667 -0.83333333       0.005
   0.00000000  0.33333333 -0.66666667       0.005
   0.16666667  0.50000000 -0.50000000       0.005
   0.33333333  0.66666667 -0.33333333       0.005
  -0.50000000 -0.16666667 -1.16666667       0.005
  -0.33333333 -0.00000000 -1.00000000       0.005
   0.00000000  0.00000000 -1.00000000       0.005
   0.16666667  0.16666667 -0.83333333       0.005
   0.33333333  0.33333333 -0.66666667       0.005
   0.50000000  0.50000000 -0.50000000       0.005
  -0.33333333 -0.33333333 -1.33333333       0.005
  -0.16666667 -0.16666667 -1.16666667       0.005
  -0.83333333  0.83333333 -0.16666667       0.005
  -0.66666667  1.00000000  0.00000000       0.005
  -0.50000000  1.16666667  0.16666667       0.005
  -0.33333333  1.33333333  0.33333333       0.005
  -1.16666667  0.50000000 -0.50000000       0.005
  -1.00000000  0.66666667 -0.33333333       0.005
  -0.66666667  0.66666667 -0.33333333       0.005
  -0.50000000  0.83333333 -0.16666667       0.005
  -0.33333333  1.00000000  0.00000000       0.005
  -0.16666667  1.16666667  0.16666667       0.005
  -1.00000000  0.33333333 -0.66666667       0.005
  -0.83333333  0.50000000 -0.50000000       0.005
   0.33333333 -0.33333333  0.33333333       0.005
   0.50000000 -0.16666667  0.50000000       0.005
   0.66666667  0.00000000  0.66666667       0.005
   0.83333333  0.16666667  0.83333333       0.005
   0.00000000 -0.66666667  0.00000000       0.005
   0.16666667 -0.50000000  0.16666667       0.005
   0.50000000 -0.50000000  0.16666667       0.005
   0.66666667 -0.33333333  0.33333333       0.005
   0.83333333 -0.16666667  0.50000000       0.005
   1.00000000  0.00000000  0.66666667       0.005
   0.16666667 -0.83333333 -0.16666667       0.005
   0.33333333 -0.66666667 -0.00000000       0.005
   0.66666667 -0.66666667  0.00000000       0.005
   0.83333333 -0.50000000  0.16666667       0.005
   1.00000000 -0.33333333  0.33333333       0.005
   1.16666667 -0.16666667  0.50000000       0.005
   0.33333333 -1.00000000 -0.33333333       0.005
   0.50000000 -0.83333333 -0.16666667       0.005
   0.83333333 -0.83333333 -0.16666667       0.005
   1.00000000 -0.66666667  0.00000000       0.005
   1.16666667 -0.50000000  0.16666667       0.005
   1.33333333 -0.33333333  0.33333333       0.005
   0.50000000 -1.16666667 -0.50000000       0.005
   0.66666667 -1.00000000 -0.33333333       0.005
   0.00000000  0.00000000  0.66666667       0.005
   0.16666667  0.16666667  0.83333333       0.005
   0.33333333  0.33333333  1.00000000       0.005
   0.50000000  0.50000000  1.16666667       0.005
  -0.33333333 -0.33333333  0.33333333       0.005
  -0.16666667 -0.16666667  0.50000000       0.005
   0.16666667 -0.16666667  0.50000000       0.005
   0.33333333  0.00000000  0.66666667       0.005
   0.50000000  0.16666667  0.83333333       0.005
   0.66666667  0.33333333  1.00000000       0.005
  -0.16666667 -0.50000000  0.16666667       0.005
  -0.00000000 -0.33333333  0.33333333       0.005
   0.16666667 -0.16666667  0.16666667       0.005
   0.33333333  0.00000000  0.33333333       0.005
   0.50000000  0.16666667  0.50000000       0.005
   0.66666667  0.33333333  0.66666667       0.005
  -0.16666667 -0.50000000 -0.16666667       0.005
   0.00000000 -0.33333333  0.00000000       0.005
   0.33333333 -0.33333333  0.00000000       0.005
   0.50000000 -0.16666667  0.16666667       0.005
   0.66666667 -0.00000000  0.33333333       0.005
   0.83333333  0.16666667  0.50000000       0.005
  -0.00000000 -0.66666667 -0.33333333       0.005
   0.16666667 -0.50000000 -0.16666667       0.005
   0.50000000 -0.50000000 -0.16666667       0.005
   0.66666667 -0.33333333  0.00000000       0.005
   0.83333333 -0.16666667  0.16666667       0.005
   1.00000000  0.00000000  0.33333333       0.005
   0.16666667 -0.83333333 -0.50000000       0.005
   0.33333333 -0.66666667 -0.33333333       0.005
   0.66666667 -0.66666667 -0.33333333       0.005
   0.83333333 -0.50000000 -0.16666667       0.005
   1.00000000 -0.33333333 -0.00000000       0.005
   1.16666667 -0.16666667  0.16666667       0.005
   0.33333333 -1.00000000 -0.66666667       0.005
   0.50000000 -0.83333333 -0.50000000       0.005
  -0.16666667  0.16666667  0.50000000       0.005
  -0.00000000  0.33333333  0.66666667       0.005
   0.16666667  0.50000000  0.83333333       0.005
   0.33333333  0.66666667  1.00000000       0.005
  -0.50000000 -0.16666667  0.16666667       0.005
  -0.33333333 -0.00000000  0.33333333       0.005
   0.00000000  0.00000000  0.33333333       0.005
   0.16666667  0.16666667  0.50000000       0.005
   0.33333333  0.33333333  0.66666667       0.005
   0.50000000  0.50000000  0.83333333       0.005
  -0.33333333 -0.33333333  0.00000000       0.005
  -0.16666667 -0.16666667  0.16666667       0.005
 
 k-points in reciprocal lattice and weights: Automatic mesh                          
   0.00000000  0.00000000  0.00000000       0.005
   0.16666667  0.00000000  0.00000000       0.005
   0.33333333  0.00000000  0.00000000       0.005
   0.50000000  0.00000000  0.00000000       0.005
  -0.33333333  0.00000000  0.00000000       0.005
  -0.16666667  0.00000000  0.00000000       0.005
   0.00000000  0.16666667  0.00000000       0.005
   0.16666667  0.16666667  0.00000000       0.005
   0.33333333  0.16666667  0.00000000       0.005
   0.50000000  0.16666667  0.00000000       0.005
  -0.33333333  0.16666667  0.00000000       0.005
  -0.16666667  0.16666667  0.00000000       0.005
   0.00000000  0.33333333  0.00000000       0.005
   0.16666667  0.33333333  0.00000000       0.005
   0.33333333  0.33333333  0.00000000       0.005
   0.50000000  0.33333333  0.00000000       0.005
  -0.33333333  0.33333333  0.00000000       0.005
  -0.16666667  0.33333333  0.00000000       0.005
   0.00000000  0.50000000  0.00000000       0.005
   0.16666667  0.50000000  0.00000000       0.005
   0.33333333  0.50000000  0.00000000       0.005
   0.50000000  0.50000000  0.00000000       0.005
  -0.33333333  0.50000000  0.00000000       0.005
  -0.16666667  0.50000000  0.00000000       0.005
   0.00000000 -0.33333333  0.00000000       0.005
   0.16666667 -0.33333333  0.00000000       0.005
   0.33333333 -0.33333333  0.00000000       0.005
   0.50000000 -0.33333333  0.00000000       0.005
  -0.33333333 -0.33333333  0.00000000       0.005
  -0.16666667 -0.33333333  0.00000000       0.005
   0.00000000 -0.16666667  0.00000000       0.005
   0.16666667 -0.16666667  0.00000000       0.005
   0.33333333 -0.16666667  0.00000000       0.005
   0.50000000 -0.16666667  0.00000000       0.005
  -0.33333333 -0.16666667  0.00000000       0.005
  -0.16666667 -0.16666667  0.00000000       0.005
   0.00000000  0.00000000  0.16666667       0.005
   0.16666667  0.00000000  0.16666667       0.005
   0.33333333  0.00000000  0.16666667       0.005
   0.50000000  0.00000000  0.16666667       0.005
  -0.33333333  0.00000000  0.16666667       0.005
  -0.16666667  0.00000000  0.16666667       0.005
   0.00000000  0.16666667  0.16666667       0.005
   0.16666667  0.16666667  0.16666667       0.005
   0.33333333  0.16666667  0.16666667       0.005
   0.50000000  0.16666667  0.16666667       0.005
  -0.33333333  0.16666667  0.16666667       0.005
  -0.16666667  0.16666667  0.16666667       0.005
   0.00000000  0.33333333  0.16666667       0.005
   0.16666667  0.33333333  0.16666667       0.005
   0.33333333  0.33333333  0.16666667       0.005
   0.50000000  0.33333333  0.16666667       0.005
  -0.33333333  0.33333333  0.16666667       0.005
  -0.16666667  0.33333333  0.16666667       0.005
   0.00000000  0.50000000  0.16666667       0.005
   0.16666667  0.50000000  0.16666667       0.005
   0.33333333  0.50000000  0.16666667       0.005
   0.50000000  0.50000000  0.16666667       0.005
  -0.33333333  0.50000000  0.16666667       0.005
  -0.16666667  0.50000000  0.16666667       0.005
   0.00000000 -0.33333333  0.16666667       0.005
   0.16666667 -0.33333333  0.16666667       0.005
   0.33333333 -0.33333333  0.16666667       0.005
   0.50000000 -0.33333333  0.16666667       0.005
  -0.33333333 -0.33333333  0.16666667       0.005
  -0.16666667 -0.33333333  0.16666667       0.005
   0.00000000 -0.16666667  0.16666667       0.005
   0.16666667 -0.16666667  0.16666667       0.005
   0.33333333 -0.16666667  0.16666667       0.005
   0.50000000 -0.16666667  0.16666667       0.005
  -0.33333333 -0.16666667  0.16666667       0.005
  -0.16666667 -0.16666667  0.16666667       0.005
   0.00000000  0.00000000  0.33333333       0.005
   0.16666667  0.00000000  0.33333333       0.005
   0.33333333  0.00000000  0.33333333       0.005
   0.50000000  0.00000000  0.33333333       0.005
  -0.33333333  0.00000000  0.33333333       0.005
  -0.16666667  0.00000000  0.33333333       0.005
   0.00000000  0.16666667  0.33333333       0.005
   0.16666667  0.16666667  0.33333333       0.005
   0.33333333  0.16666667  0.33333333       0.005
   0.50000000  0.16666667  0.33333333       0.005
  -0.33333333  0.16666667  0.33333333       0.005
  -0.16666667  0.16666667  0.33333333       0.005
   0.00000000  0.33333333  0.33333333       0.005
   0.16666667  0.33333333  0.33333333       0.005
   0.33333333  0.33333333  0.33333333       0.005
   0.50000000  0.33333333  0.33333333       0.005
  -0.33333333  0.33333333  0.33333333       0.005
  -0.16666667  0.33333333  0.33333333       0.005
   0.00000000  0.50000000  0.33333333       0.005
   0.16666667  0.50000000  0.33333333       0.005
   0.33333333  0.50000000  0.33333333       0.005
   0.50000000  0.50000000  0.33333333       0.005
  -0.33333333  0.50000000  0.33333333       0.005
  -0.16666667  0.50000000  0.33333333       0.005
   0.00000000 -0.33333333  0.33333333       0.005
   0.16666667 -0.33333333  0.33333333       0.005
   0.33333333 -0.33333333  0.33333333       0.005
   0.50000000 -0.33333333  0.33333333       0.005
  -0.33333333 -0.33333333  0.33333333       0.005
  -0.16666667 -0.33333333  0.33333333       0.005
   0.00000000 -0.16666667  0.33333333       0.005
   0.16666667 -0.16666667  0.33333333       0.005
   0.33333333 -0.16666667  0.33333333       0.005
   0.50000000 -0.16666667  0.33333333       0.005
  -0.33333333 -0.16666667  0.33333333       0.005
  -0.16666667 -0.16666667  0.33333333       0.005
   0.00000000  0.00000000  0.50000000       0.005
   0.16666667  0.00000000  0.50000000       0.005
   0.33333333  0.00000000  0.50000000       0.005
   0.50000000  0.00000000  0.50000000       0.005
  -0.33333333  0.00000000  0.50000000       0.005
  -0.16666667  0.00000000  0.50000000       0.005
   0.00000000  0.16666667  0.50000000       0.005
   0.16666667  0.16666667  0.50000000       0.005
   0.33333333  0.16666667  0.50000000       0.005
   0.50000000  0.16666667  0.50000000       0.005
  -0.33333333  0.16666667  0.50000000       0.005
  -0.16666667  0.16666667  0.50000000       0.005
   0.00000000  0.33333333  0.50000000       0.005
   0.16666667  0.33333333  0.50000000       0.005
   0.33333333  0.33333333  0.50000000       0.005
   0.50000000  0.33333333  0.50000000       0.005
  -0.33333333  0.33333333  0.50000000       0.005
  -0.16666667  0.33333333  0.50000000       0.005
   0.00000000  0.50000000  0.50000000       0.005
   0.16666667  0.50000000  0.50000000       0.005
   0.33333333  0.50000000  0.50000000       0.005
   0.50000000  0.50000000  0.50000000       0.005
  -0.33333333  0.50000000  0.50000000       0.005
  -0.16666667  0.50000000  0.50000000       0.005
   0.00000000 -0.33333333  0.50000000       0.005
   0.16666667 -0.33333333  0.50000000       0.005
   0.33333333 -0.33333333  0.50000000       0.005
   0.50000000 -0.33333333  0.50000000       0.005
  -0.33333333 -0.33333333  0.50000000       0.005
  -0.16666667 -0.33333333  0.50000000       0.005
   0.00000000 -0.16666667  0.50000000       0.005
   0.16666667 -0.16666667  0.50000000       0.005
   0.33333333 -0.16666667  0.50000000       0.005
   0.50000000 -0.16666667  0.50000000       0.005
  -0.33333333 -0.16666667  0.50000000       0.005
  -0.16666667 -0.16666667  0.50000000       0.005
   0.00000000  0.00000000 -0.33333333       0.005
   0.16666667  0.00000000 -0.33333333       0.005
   0.33333333  0.00000000 -0.33333333       0.005
   0.50000000  0.00000000 -0.33333333       0.005
  -0.33333333  0.00000000 -0.33333333       0.005
  -0.16666667  0.00000000 -0.33333333       0.005
   0.00000000  0.16666667 -0.33333333       0.005
   0.16666667  0.16666667 -0.33333333       0.005
   0.33333333  0.16666667 -0.33333333       0.005
   0.50000000  0.16666667 -0.33333333       0.005
  -0.33333333  0.16666667 -0.33333333       0.005
  -0.16666667  0.16666667 -0.33333333       0.005
   0.00000000  0.33333333 -0.33333333       0.005
   0.16666667  0.33333333 -0.33333333       0.005
   0.33333333  0.33333333 -0.33333333       0.005
   0.50000000  0.33333333 -0.33333333       0.005
  -0.33333333  0.33333333 -0.33333333       0.005
  -0.16666667  0.33333333 -0.33333333       0.005
   0.00000000  0.50000000 -0.33333333       0.005
   0.16666667  0.50000000 -0.33333333       0.005
   0.33333333  0.50000000 -0.33333333       0.005
   0.50000000  0.50000000 -0.33333333       0.005
  -0.33333333  0.50000000 -0.33333333       0.005
  -0.16666667  0.50000000 -0.33333333       0.005
   0.00000000 -0.33333333 -0.33333333       0.005
   0.16666667 -0.33333333 -0.33333333       0.005
   0.33333333 -0.33333333 -0.33333333       0.005
   0.50000000 -0.33333333 -0.33333333       0.005
  -0.33333333 -0.33333333 -0.33333333       0.005
  -0.16666667 -0.33333333 -0.33333333       0.005
   0.00000000 -0.16666667 -0.33333333       0.005
   0.16666667 -0.16666667 -0.33333333       0.005
   0.33333333 -0.16666667 -0.33333333       0.005
   0.50000000 -0.16666667 -0.33333333       0.005
  -0.33333333 -0.16666667 -0.33333333       0.005
  -0.16666667 -0.16666667 -0.33333333       0.005
   0.00000000  0.00000000 -0.16666667       0.005
   0.16666667  0.00000000 -0.16666667       0.005
   0.33333333  0.00000000 -0.16666667       0.005
   0.50000000  0.00000000 -0.16666667       0.005
  -0.33333333  0.00000000 -0.16666667       0.005
  -0.16666667  0.00000000 -0.16666667       0.005
   0.00000000  0.16666667 -0.16666667       0.005
   0.16666667  0.16666667 -0.16666667       0.005
   0.33333333  0.16666667 -0.16666667       0.005
   0.50000000  0.16666667 -0.16666667       0.005
  -0.33333333  0.16666667 -0.16666667       0.005
  -0.16666667  0.16666667 -0.16666667       0.005
   0.00000000  0.33333333 -0.16666667       0.005
   0.16666667  0.33333333 -0.16666667       0.005
   0.33333333  0.33333333 -0.16666667       0.005
   0.50000000  0.33333333 -0.16666667       0.005
  -0.33333333  0.33333333 -0.16666667       0.005
  -0.16666667  0.33333333 -0.16666667       0.005
   0.00000000  0.50000000 -0.16666667       0.005
   0.16666667  0.50000000 -0.16666667       0.005
   0.33333333  0.50000000 -0.16666667       0.005
   0.50000000  0.50000000 -0.16666667       0.005
  -0.33333333  0.50000000 -0.16666667       0.005
  -0.16666667  0.50000000 -0.16666667       0.005
   0.00000000 -0.33333333 -0.16666667       0.005
   0.16666667 -0.33333333 -0.16666667       0.005
   0.33333333 -0.33333333 -0.16666667       0.005
   0.50000000 -0.33333333 -0.16666667       0.005
  -0.33333333 -0.33333333 -0.16666667       0.005
  -0.16666667 -0.33333333 -0.16666667       0.005
   0.00000000 -0.16666667 -0.16666667       0.005
   0.16666667 -0.16666667 -0.16666667       0.005
   0.33333333 -0.16666667 -0.16666667       0.005
   0.50000000 -0.16666667 -0.16666667       0.005
  -0.33333333 -0.16666667 -0.16666667       0.005
  -0.16666667 -0.16666667 -0.16666667       0.005
 
 position of ions in fractional coordinates (direct lattice) 
   0.00000000  0.00000000  0.00000000
   0.25000000  0.25000000  0.25000000
 
 position of ions in cartesian coordinates  (Angst):
   0.00000000  0.00000000  0.00000000
   1.62067500  1.62067500 -1.62067500
 
 Euler angles ALPHA=     0.0000000  BETA=     0.0000000

 transformation matrix from SAXIS to cartesian coordinates
 ---------------------------------------------------------
     1.0000000 m_x     0.0000000 m_y     0.0000000 m_z
     0.0000000 m_x     1.0000000 m_y     0.0000000 m_z
     0.0000000 m_x     0.0000000 m_y     1.0000000 m_z

 transformation matrix from cartesian coordinates to SAXIS
 ---------------------------------------------------------
     1.0000000 m_x     0.0000000 m_y     0.0000000 m_z
     0.0000000 m_x     1.0000000 m_y     0.0000000 m_z
     0.0000000 m_x     0.0000000 m_y     1.0000000 m_z




--------------------------------------------------------------------------------------------------------


 k-point  1 :   0.0000 0.0000 0.0000  plane waves:    3518
 k-point  2 :   0.1667 0.0000 0.0000  plane waves:    3494
 k-point  3 :   0.3333 0.0000 0.0000  plane waves:    3460
 k-point  4 :   0.5000 0.0000 0.0000  plane waves:    3436
 k-point  5 :  -0.3333 0.0000 0.0000  plane waves:    3460
 k-point  6 :  -0.1667 0.0000 0.0000  plane waves:    3494
 k-point  7 :   0.0000 0.1667 0.0000  plane waves:    3494
 k-point  8 :   0.1667 0.1667 0.0000  plane waves:    3472
 k-point  9 :   0.3333 0.1667 0.0000  plane waves:    3458
 k-point 10 :   0.5000 0.1667 0.0000  plane waves:    3478
 k-point 11 :  -0.3333 0.1667 0.0000  plane waves:    3464
 k-point 12 :  -0.1667 0.1667 0.0000  plane waves:    3470
 k-point 13 :   0.0000 0.3333 0.0000  plane waves:    3460
 k-point 14 :   0.1667 0.3333 0.0000  plane waves:    3458
 k-point 15 :   0.3333 0.3333 0.0000  plane waves:    3456
 k-point 16 :   0.5000 0.3333 0.0000  plane waves:    3446
 k-point 17 :  -0.3333 0.3333 0.0000  plane waves:    3452
 k-point 18 :  -0.1667 0.3333 0.0000  plane waves:    3464
 k-point 19 :   0.0000 0.5000 0.0000  plane waves:    3436
 k-point 20 :   0.1667 0.5000 0.0000  plane waves:    3478
 k-point 21 :   0.3333 0.5000 0.0000  plane waves:    3446
 k-point 22 :   0.5000 0.5000 0.0000  plane waves:    3448
 k-point 23 :  -0.3333 0.5000 0.0000  plane waves:    3446
 k-point 24 :  -0.1667 0.5000 0.0000  plane waves:    3478
 k-point 25 :   0.0000-0.3333 0.0000  plane waves:    3460
 k-point 26 :   0.1667-0.3333 0.0000  plane waves:    3464
 k-point 27 :   0.3333-0.3333 0.0000  plane waves:    3452
 k-point 28 :   0.5000-0.3333 0.0000  plane waves:    3446
 k-point 29 :  -0.3333-0.3333 0.0000  plane waves:    3456
 k-point 30 :  -0.1667-0.3333 0.0000  plane waves:    3458
[...]
 k-point 55 :   0.0000 0.5000 0.1667  plane waves:    3478
 k-point 56 :   0.1667 0.5000 0.1667  plane waves:    3464
 k-point 57 :   0.3333 0.5000 0.1667  plane waves:    3448
 k-point 58 :   0.5000 0.5000 0.1667  plane waves:    3446
 k-point 59 :  -0.3333 0.5000 0.1667  plane waves:    3444
 k-point 60 :  -0.1667 0.5000 0.1667  plane waves:    3452
 k-point 61 :   0.0000-0.3333 0.1667  plane waves:    3464
 k-point 62 :   0.1667-0.3333 0.1667  plane waves:    3478
 k-point 63 :   0.3333-0.3333 0.1667  plane waves:    3452
 k-point 64 :   0.5000-0.3333 0.1667  plane waves:    3444
 k-point 65 :  -0.3333-0.3333 0.1667  plane waves:    3446
 k-point 66 :  -0.1667-0.3333 0.1667  plane waves:    3448
 k-point 67 :   0.0000-0.1667 0.1667  plane waves:    3470
 k-point 68 :   0.1667-0.1667 0.1667  plane waves:    3458
 k-point 69 :   0.3333-0.1667 0.1667  plane waves:    3448
 k-point 70 :   0.5000-0.1667 0.1667  plane waves:    3452
 k-point 71 :  -0.3333-0.1667 0.1667  plane waves:    3448
 k-point 72 :  -0.1667-0.1667 0.1667  plane waves:    3458
 k-point 73 :   0.0000 0.0000 0.3333  plane waves:    3460
 k-point 74 :   0.1667 0.0000 0.3333  plane waves:    3458
 k-point 75 :   0.3333 0.0000 0.3333  plane waves:    3456
 k-point 76 :   0.5000 0.0000 0.3333  plane waves:    3446
 k-point 77 :  -0.3333 0.0000 0.3333  plane waves:    3452
 k-point 78 :  -0.1667 0.0000 0.3333  plane waves:    3464
 k-point 79 :   0.0000 0.1667 0.3333  plane waves:    3458
 k-point 80 :   0.1667 0.1667 0.3333  plane waves:    3470
 k-point 81 :   0.3333 0.1667 0.3333  plane waves:    3458
 k-point 82 :   0.5000 0.1667 0.3333  plane waves:    3448
 k-point 83 :  -0.3333 0.1667 0.3333  plane waves:    3452
 k-point 84 :  -0.1667 0.1667 0.3333  plane waves:    3448
 k-point 85 :   0.0000 0.3333 0.3333  plane waves:    3456
 k-point 86 :   0.1667 0.3333 0.3333  plane waves:    3458
 k-point 87 :   0.3333 0.3333 0.3333  plane waves:    3460
 k-point 88 :   0.5000 0.3333 0.3333  plane waves:    3464
 k-point 89 :  -0.3333 0.3333 0.3333  plane waves:    3452
 k-point 90 :  -0.1667 0.3333 0.3333  plane waves:    3446
 k-point 91 :   0.0000 0.5000 0.3333  plane waves:    3446
 k-point 92 :   0.1667 0.5000 0.3333  plane waves:    3448
 k-point 93 :   0.3333 0.5000 0.3333  plane waves:    3464
 k-point 94 :   0.5000 0.5000 0.3333  plane waves:    3478
 k-point 95 :  -0.3333 0.5000 0.3333  plane waves:    3452
 k-point 96 :  -0.1667 0.5000 0.3333  plane waves:    3444
 k-point 97 :   0.0000-0.3333 0.3333  plane waves:    3452
 k-point 98 :   0.1667-0.3333 0.3333  plane waves:    3452
 k-point 99 :   0.3333-0.3333 0.3333  plane waves:    3452
 k-point ** :   0.5000-0.3333 0.3333  plane waves:    3452
 k-point ** :  -0.3333-0.3333 0.3333  plane waves:    3452
 k-point ** :  -0.1667-0.3333 0.3333  plane waves:    3452
 k-point ** :   0.0000-0.1667 0.3333  plane waves:    3464
 k-point ** :   0.1667-0.1667 0.3333  plane waves:    3448
 k-point ** :   0.3333-0.1667 0.3333  plane waves:    3446
 k-point ** :   0.5000-0.1667 0.3333  plane waves:    3444
 k-point ** :  -0.3333-0.1667 0.3333  plane waves:    3452
 k-point ** :  -0.1667-0.1667 0.3333  plane waves:    3478
 k-point ** :   0.0000 0.0000 0.5000  plane waves:    3436
 k-point ** :   0.1667 0.0000 0.5000  plane waves:    3478
 k-point ** :   0.3333 0.0000 0.5000  plane waves:    3446
 k-point ** :   0.5000 0.0000 0.5000  plane waves:    3448
 k-point ** :  -0.3333 0.0000 0.5000  plane waves:    3446
 k-point ** :  -0.1667 0.0000 0.5000  plane waves:    3478
 k-point ** :   0.0000 0.1667 0.5000  plane waves:    3478
 k-point ** :   0.1667 0.1667 0.5000  plane waves:    3464
 k-point ** :   0.3333 0.1667 0.5000  plane waves:    3448
 k-point ** :   0.5000 0.1667 0.5000  plane waves:    3446
 k-point ** :  -0.3333 0.1667 0.5000  plane waves:    3444
 k-point ** :  -0.1667 0.1667 0.5000  plane waves:    3452
 k-point ** :   0.0000 0.3333 0.5000  plane waves:    3446
 k-point ** :   0.1667 0.3333 0.5000  plane waves:    3448
 k-point ** :   0.3333 0.3333 0.5000  plane waves:    3464
 k-point ** :   0.5000 0.3333 0.5000  plane waves:    3478
 k-point ** :  -0.3333 0.3333 0.5000  plane waves:    3452
 k-point ** :  -0.1667 0.3333 0.5000  plane waves:    3444
 k-point ** :   0.0000 0.5000 0.5000  plane waves:    3448
 k-point ** :   0.1667 0.5000 0.5000  plane waves:    3446
 k-point ** :   0.3333 0.5000 0.5000  plane waves:    3478
 k-point ** :   0.5000 0.5000 0.5000  plane waves:    3436
 k-point ** :  -0.3333 0.5000 0.5000  plane waves:    3478
 k-point ** :  -0.1667 0.5000 0.5000  plane waves:    3446
 k-point ** :   0.0000-0.3333 0.5000  plane waves:    3446
 k-point ** :   0.1667-0.3333 0.5000  plane waves:    3444
 k-point ** :   0.3333-0.3333 0.5000  plane waves:    3452
 k-point ** :   0.5000-0.3333 0.5000  plane waves:    3478
 k-point ** :  -0.3333-0.3333 0.5000  plane waves:    3464
 k-point ** :  -0.1667-0.3333 0.5000  plane waves:    3448
 k-point ** :   0.0000-0.1667 0.5000  plane waves:    3478
 k-point ** :   0.1667-0.1667 0.5000  plane waves:    3452
 k-point ** :   0.3333-0.1667 0.5000  plane waves:    3444
 k-point ** :   0.5000-0.1667 0.5000  plane waves:    3446
 k-point ** :  -0.3333-0.1667 0.5000  plane waves:    3448
 k-point ** :  -0.1667-0.1667 0.5000  plane waves:    3464
 k-point ** :   0.0000 0.0000-0.3333  plane waves:    3460
 k-point ** :   0.1667 0.0000-0.3333  plane waves:    3464
 k-point ** :   0.3333 0.0000-0.3333  plane waves:    3452
 k-point ** :   0.5000 0.0000-0.3333  plane waves:    3446
 k-point ** :  -0.3333 0.0000-0.3333  plane waves:    3456
 k-point ** :  -0.1667 0.0000-0.3333  plane waves:    3458
 k-point ** :   0.0000 0.1667-0.3333  plane waves:    3464
 k-point ** :   0.1667 0.1667-0.3333  plane waves:    3478
 k-point ** :   0.3333 0.1667-0.3333  plane waves:    3452
 k-point ** :   0.5000 0.1667-0.3333  plane waves:    3444
 k-point ** :  -0.3333 0.1667-0.3333  plane waves:    3446
 k-point ** :  -0.1667 0.1667-0.3333  plane waves:    3448
 k-point ** :   0.0000 0.3333-0.3333  plane waves:    3452
 k-point ** :   0.1667 0.3333-0.3333  plane waves:    3452
 k-point ** :   0.3333 0.3333-0.3333  plane waves:    3452
 k-point ** :   0.5000 0.3333-0.3333  plane waves:    3452
 k-point ** :  -0.3333 0.3333-0.3333  plane waves:    3452
 k-point ** :  -0.1667 0.3333-0.3333  plane waves:    3452
 k-point ** :   0.0000 0.5000-0.3333  plane waves:    3446
 k-point ** :   0.1667 0.5000-0.3333  plane waves:    3444
 k-point ** :   0.3333 0.5000-0.3333  plane waves:    3452
 k-point ** :   0.5000 0.5000-0.3333  plane waves:    3478
 k-point ** :  -0.3333 0.5000-0.3333  plane waves:    3464
 k-point ** :  -0.1667 0.5000-0.3333  plane waves:    3448
 k-point ** :   0.0000-0.3333-0.3333  plane waves:    3456
 k-point ** :   0.1667-0.3333-0.3333  plane waves:    3446
 k-point ** :   0.3333-0.3333-0.3333  plane waves:    3452
 k-point ** :   0.5000-0.3333-0.3333  plane waves:    3464
 k-point ** :  -0.3333-0.3333-0.3333  plane waves:    3460
 k-point ** :  -0.1667-0.3333-0.3333  plane waves:    3458
 k-point ** :   0.0000-0.1667-0.3333  plane waves:    3458
 k-point ** :   0.1667-0.1667-0.3333  plane waves:    3448
 k-point ** :   0.3333-0.1667-0.3333  plane waves:    3452
 k-point ** :   0.5000-0.1667-0.3333  plane waves:    3448
 k-point ** :  -0.3333-0.1667-0.3333  plane waves:    3458
 k-point ** :  -0.1667-0.1667-0.3333  plane waves:    3470
 k-point ** :   0.0000 0.0000-0.1667  plane waves:    3494
 k-point ** :   0.1667 0.0000-0.1667  plane waves:    3470
 k-point ** :   0.3333 0.0000-0.1667  plane waves:    3464
 k-point ** :   0.5000 0.0000-0.1667  plane waves:    3478
 k-point ** :  -0.3333 0.0000-0.1667  plane waves:    3458
 k-point ** :  -0.1667 0.0000-0.1667  plane waves:    3472
 k-point ** :   0.0000 0.1667-0.1667  plane waves:    3470
 k-point ** :   0.1667 0.1667-0.1667  plane waves:    3458
 k-point ** :   0.3333 0.1667-0.1667  plane waves:    3448
 k-point ** :   0.5000 0.1667-0.1667  plane waves:    3452
 k-point ** :  -0.3333 0.1667-0.1667  plane waves:    3448
 k-point ** :  -0.1667 0.1667-0.1667  plane waves:    3458
 k-point ** :   0.0000 0.3333-0.1667  plane waves:    3464
 k-point ** :   0.1667 0.3333-0.1667  plane waves:    3448
 k-point ** :   0.3333 0.3333-0.1667  plane waves:    3446
 k-point ** :   0.5000 0.3333-0.1667  plane waves:    3444
 k-point ** :  -0.3333 0.3333-0.1667  plane waves:    3452
 k-point ** :  -0.1667 0.3333-0.1667  plane waves:    3478
 k-point ** :   0.0000 0.5000-0.1667  plane waves:    3478
 k-point ** :   0.1667 0.5000-0.1667  plane waves:    3452
 k-point ** :   0.3333 0.5000-0.1667  plane waves:    3444
 k-point ** :   0.5000 0.5000-0.1667  plane waves:    3446
 k-point ** :  -0.3333 0.5000-0.1667  plane waves:    3448
 k-point ** :  -0.1667 0.5000-0.1667  plane waves:    3464
 k-point ** :   0.0000-0.3333-0.1667  plane waves:    3458
 k-point ** :   0.1667-0.3333-0.1667  plane waves:    3448
 k-point ** :   0.3333-0.3333-0.1667  plane waves:    3452
 k-point ** :   0.5000-0.3333-0.1667  plane waves:    3448
 k-point ** :  -0.3333-0.3333-0.1667  plane waves:    3458
 k-point ** :  -0.1667-0.3333-0.1667  plane waves:    3470
 k-point ** :   0.0000-0.1667-0.1667  plane waves:    3472
 k-point ** :   0.1667-0.1667-0.1667  plane waves:    3458
 k-point ** :   0.3333-0.1667-0.1667  plane waves:    3478
 k-point ** :   0.5000-0.1667-0.1667  plane waves:    3464
 k-point ** :  -0.3333-0.1667-0.1667  plane waves:    3470
 k-point ** :  -0.1667-0.1667-0.1667  plane waves:    3494

 maximum and minimum number of plane-waves per node :       170      114

 maximum number of plane-waves:      3518
 maximum index in each direction: 
   IXMAX=    8   IYMAX=    8   IZMAX=    8
   IXMIN=   -8   IYMIN=   -8   IZMIN=   -8

 NGX is ok and might be reduce to  34
 NGY is ok and might be reduce to  34
 NGZ is ok and might be reduce to  34

 parallel 3D FFT for wavefunctions:
    minimum data exchange during FFTs selected (reduces bandwidth)
 parallel 3D FFT for charge:
    minimum data exchange during FFTs selected (reduces bandwidth)


 FFT grid for exact exchange (Hartree Fock) 
  NGX = 18; NGY = 18; NGZ = 18

 
 Radii for the augmentation spheres in the non-local exchange
 for species   1 augmentation radius   1.444 (default was   1.070)
       energy cutoff for augmentation   2000.0
 for species   2 augmentation radius   1.606 (default was   1.190)
       energy cutoff for augmentation   2000.0

 real space projection operators:
  total allocation   :        493.16 KBytes
  max/ min on nodes  :         45.12          0.00

 Maximum index for augmentation-charges in exchange          121
  SETUP_FOCK is finished

 total amount of memory used by VASP on root node    52585. kBytes
========================================================================

   base      :      30000. kBytes
   nonl-proj :       5228. kBytes
   fftplans  :        462. kBytes
   grid      :       1575. kBytes
   one-center:         62. kBytes
   HF        :         64. kBytes
   nonlr-proj:        101. kBytes
   wavefun   :      15093. kBytes
 
     INWAV:  cpu time    0.0000: real time    0.0002
 Broyden mixing: mesh for mixing (old mesh)
   NGX = 17   NGY = 17   NGZ = 17
  (NGX  = 72   NGY  = 72   NGZ  = 72)
  gives a total of   4913 points

 initial charge density was supplied:
 charge density of overlapping atoms calculated
 number of electron      18.0000000 magnetization       2.0000000      2.0000000      2.0000000
 keeping initial charge density in first step


--------------------------------------------------------------------------------------------------------


 Maximum index for augmentation-charges         1027 (set IRDMAX)


--------------------------------------------------------------------------------------------------------


 First call to EWALD:  gamma=   0.434
 Maximum number of real-space cells 3x 3x 3
 Maximum number of reciprocal cells 3x 3x 3

 FEWALD executed in parallel
    FEWALD:  cpu time    0.0000: real time    0.0015


----------------------------------------- Iteration    1(   1)  ---------------------------------------


    POTLOK:  cpu time    0.0640: real time    0.0676
    SETDIJ:  cpu time    0.1640: real time    0.1647
    TRIAL :  cpu time    7.1324: real time    7.1389
    CORREC:  cpu time    0.0040: real time    0.0028
    --------------------------------------------
      LOOP:  cpu time    7.3725: real time    7.3819

 eigenvalue-minimisations  : 12168
 total energy-change (2. order) : 0.1394482E+03  (-0.8510961E+03)
 number of electron      18.0000000 magnetization       2.0000000      2.0000000      2.0000000
 augmentation part       18.0000000 magnetization       2.0000000      2.0000000      2.0000000

 Free energy of the ion-electron system (eV)
  ---------------------------------------------------
  alpha Z        PSCENC =        50.17222034
  Ewald energy   TEWEN  =     -1044.83138452
  -Hartree energ DENC   =      -510.12304479
  -exchange      EXHF   =         0.00000000
  -V(xc)+E(xc)   XCENC  =       -18.17596635
  PAW double counting   =      1399.42706640    -1338.11586806
  entropy T*S    EENTRO =        -0.00000155
  eigenvalues    EBANDS =        86.58015659
  atomic energy  EATOM  =      1514.51503256
  ---------------------------------------------------
  free energy    TOTEN  =       139.44821062 eV

  energy without entropy =      139.44821218  energy(sigma->0) =      139.44821140
  exchange ACFDT corr.  =         0.00000000  see jH, gK, PRB 81, 115126


--------------------------------------------------------------------------------------------------------




----------------------------------------- Iteration    1(   2)  ---------------------------------------


    TRIAL :  cpu time    7.5885: real time    7.5965
    CORREC:  cpu time    0.0000: real time    0.0011
    --------------------------------------------
      LOOP:  cpu time    7.5925: real time    7.6048

 eigenvalue-minimisations  : 13036
 total energy-change (2. order) :-0.1063372E+03  (-0.1016824E+03)
 number of electron      18.0000000 magnetization       2.0000000      2.0000000      2.0000000
 augmentation part       18.0000000 magnetization       2.0000000      2.0000000      2.0000000

 Free energy of the ion-electron system (eV)
  ---------------------------------------------------
  alpha Z        PSCENC =        50.17222034
  Ewald energy   TEWEN  =     -1044.83138452
  -Hartree energ DENC   =      -510.12304479
  -exchange      EXHF   =         0.00000000
  -V(xc)+E(xc)   XCENC  =       -18.17596635
  PAW double counting   =      1399.42706640    -1338.11586806
  entropy T*S    EENTRO =         0.00000000
  eigenvalues    EBANDS =       -19.75702232
  atomic energy  EATOM  =      1514.51503256
  ---------------------------------------------------
  free energy    TOTEN  =        33.11103326 eV

  energy without entropy =       33.11103326  energy(sigma->0) =       33.11103326
  exchange ACFDT corr.  =         0.00000000  see jH, gK, PRB 81, 115126


--------------------------------------------------------------------------------------------------------




----------------------------------------- Iteration    1(   3)  ---------------------------------------


    TRIAL :  cpu time    7.8605: real time    7.8664
    CORREC:  cpu time    0.0040: real time    0.0011
    --------------------------------------------
      LOOP:  cpu time    7.8645: real time    7.8899

 eigenvalue-minimisations  : 14564
 total energy-change (2. order) :-0.5206506E+01  (-0.5167624E+01)
 number of electron      18.0000000 magnetization       2.0000000      2.0000000      2.0000000
 augmentation part       18.0000000 magnetization       2.0000000      2.0000000      2.0000000

 Free energy of the ion-electron system (eV)
  ---------------------------------------------------
  alpha Z        PSCENC =        50.17222034
  Ewald energy   TEWEN  =     -1044.83138452
  -Hartree energ DENC   =      -510.12304479
  -exchange      EXHF   =         0.00000000
  -V(xc)+E(xc)   XCENC  =       -18.17596635
  PAW double counting   =      1399.42706640    -1338.11586806
  entropy T*S    EENTRO =         0.00000000
  eigenvalues    EBANDS =       -24.96352873
  atomic energy  EATOM  =      1514.51503256
  ---------------------------------------------------
  free energy    TOTEN  =        27.90452686 eV

  energy without entropy =       27.90452686  energy(sigma->0) =       27.90452686
  exchange ACFDT corr.  =         0.00000000  see jH, gK, PRB 81, 115126


--------------------------------------------------------------------------------------------------------




----------------------------------------- Iteration    1(   4)  ---------------------------------------


    TRIAL :  cpu time    8.0765: real time    8.0821
    CORREC:  cpu time    0.0000: real time    0.0009
    --------------------------------------------
      LOOP:  cpu time    8.0765: real time    8.1087

 eigenvalue-minimisations  : 15180
 total energy-change (2. order) :-0.8939596E-01  (-0.8932684E-01)
 number of electron      18.0000000 magnetization       2.0000000      2.0000000      2.0000000
 augmentation part       18.0000000 magnetization       2.0000000      2.0000000      2.0000000

 Free energy of the ion-electron system (eV)
  ---------------------------------------------------
  alpha Z        PSCENC =        50.17222034
  Ewald energy   TEWEN  =     -1044.83138452
  -Hartree energ DENC   =      -510.12304479
  -exchange      EXHF   =         0.00000000
  -V(xc)+E(xc)   XCENC  =       -18.17596635
  PAW double counting   =      1399.42706640    -1338.11586806
  entropy T*S    EENTRO =        -0.00000000
  eigenvalues    EBANDS =       -25.05292469
  atomic energy  EATOM  =      1514.51503256
  ---------------------------------------------------
  free energy    TOTEN  =        27.81513090 eV

  energy without entropy =       27.81513090  energy(sigma->0) =       27.81513090
  exchange ACFDT corr.  =         0.00000000  see jH, gK, PRB 81, 115126


--------------------------------------------------------------------------------------------------------




----------------------------------------- Iteration    1(   5)  ---------------------------------------


    TRIAL :  cpu time    7.7725: real time    7.8183
    CORREC:  cpu time    0.0040: real time    0.0010
    CHARGE:  cpu time    0.1560: real time    0.1585
    --------------------------------------------
      LOOP:  cpu time    7.9325: real time    7.9843

 eigenvalue-minimisations  : 13408
 total energy-change (2. order) :-0.9547633E-03  (-0.9506284E-03)
 number of electron      17.9999997 magnetization       0.0067582      0.0067579      0.0067579
 augmentation part        4.3478000 magnetization       0.0185123      0.0185273      0.0185295

 Free energy of the ion-electron system (eV)
  ---------------------------------------------------
  alpha Z        PSCENC =        50.17222034
  Ewald energy   TEWEN  =     -1044.83138452
  -Hartree energ DENC   =      -510.12304479
  -exchange      EXHF   =         0.00000000
  -V(xc)+E(xc)   XCENC  =       -18.17596635
  PAW double counting   =      1399.42706640    -1338.11586806
  entropy T*S    EENTRO =         0.00000000
  eigenvalues    EBANDS =       -25.05387945
  atomic energy  EATOM  =      1514.51503256
  ---------------------------------------------------
  free energy    TOTEN  =        27.81417613 eV

  energy without entropy =       27.81417613  energy(sigma->0) =       27.81417613
  exchange ACFDT corr.  =         0.00000000  see jH, gK, PRB 81, 115126


--------------------------------------------------------------------------------------------------------




----------------------------------------- Iteration    1(   6)  ---------------------------------------


    POTLOK:  cpu time    0.0600: real time    0.0614
    SETDIJ:  cpu time    0.1600: real time    0.1610
    TRIAL :  cpu time  781.6569: real time  782.1677
