  96  96   0   0
  0.2080188E+02  0.1257760E-08  0.1245754E-08  0.1274818E-08  0.5000000E-15
  1.000000000000000E-004
  CAR 
 MAPbI3-Cubic                            
     10.64911366    -19.67843871  301      1.57612091      1.00000000
    -19.678  0.0000E+00  0.0000E+00
    -19.577  0.0000E+00  0.0000E+00
    -19.476  0.0000E+00  0.0000E+00
    -19.375  0.0000E+00  0.0000E+00
    -19.274  0.0000E+00  0.0000E+00
    -19.173  0.0000E+00  0.0000E+00
    -19.072  0.0000E+00  0.0000E+00
    -18.971  0.0000E+00  0.0000E+00
    -18.870  0.0000E+00  0.0000E+00
    -18.769  0.0000E+00  0.0000E+00
    -18.668  0.0000E+00  0.0000E+00
    -18.566  0.0000E+00  0.0000E+00
    -18.465  0.0000E+00  0.0000E+00
    -18.364  0.0000E+00  0.0000E+00
    -18.263  0.0000E+00  0.1600E+02
    -18.162  0.0000E+00  0.1600E+02
    -18.061  0.0000E+00  0.1600E+02
    -17.960  0.0000E+00  0.1600E+02
    -17.859  0.0000E+00  0.1600E+02
    -17.758  0.0000E+00  0.1600E+02
    -17.657  0.0000E+00  0.1600E+02
    -17.556  0.0000E+00  0.1600E+02
    -17.454  0.0000E+00  0.1600E+02
    -17.353  0.0000E+00  0.1600E+02
    -17.252  0.0000E+00  0.1600E+02
    -17.151  0.0000E+00  0.1600E+02
    -17.050  0.0000E+00  0.1600E+02
    -16.949  0.0000E+00  0.1600E+02
    -16.848  0.0000E+00  0.1600E+02
    -16.747  0.0000E+00  0.1600E+02
    -16.646  0.0000E+00  0.1600E+02
    -16.545  0.0000E+00  0.1600E+02
    -16.443  0.0000E+00  0.1600E+02
    -16.342  0.0000E+00  0.4800E+02
    -16.241  0.0000E+00  0.4800E+02
    -16.140  0.0000E+00  0.4800E+02
    -16.039  0.0000E+00  0.4800E+02
    -15.938  0.0000E+00  0.4800E+02
    -15.837  0.0000E+00  0.4800E+02
    -15.736  0.0000E+00  0.4800E+02
    -15.635  0.0000E+00  0.4800E+02
    -15.534  0.0000E+00  0.4800E+02
    -15.433  0.0000E+00  0.4800E+02
    -15.331  0.0000E+00  0.4800E+02
    -15.230  0.0000E+00  0.4800E+02
    -15.129  0.0000E+00  0.4800E+02
    -15.028  0.0000E+00  0.4800E+02
    -14.927  0.0000E+00  0.4800E+02
    -14.826  0.0000E+00  0.4800E+02
    -14.725  0.0000E+00  0.4800E+02
    -14.624  0.0000E+00  0.4800E+02
    -14.523  0.0000E+00  0.4800E+02
    -14.422  0.0000E+00  0.4800E+02
    -14.321  0.0000E+00  0.4800E+02
    -14.219  0.0000E+00  0.4800E+02
    -14.118  0.0000E+00  0.4800E+02
    -14.017  0.0000E+00  0.4800E+02
    -13.916  0.0000E+00  0.4800E+02
    -13.815  0.0000E+00  0.9600E+02
    -13.714  0.0000E+00  0.9600E+02
    -13.613  0.0000E+00  0.9600E+02
    -13.512  0.0000E+00  0.9600E+02
    -13.411  0.0000E+00  0.9600E+02
    -13.310  0.0000E+00  0.9600E+02
    -13.209  0.0000E+00  0.9600E+02
    -13.107  0.0000E+00  0.9600E+02
    -13.006  0.0000E+00  0.9600E+02
    -12.905  0.0000E+00  0.9600E+02
    -12.804  0.0000E+00  0.9600E+02
    -12.703  0.0000E+00  0.9600E+02
    -12.602  0.0000E+00  0.9600E+02
    -12.501  0.0000E+00  0.9600E+02
    -12.400  0.0000E+00  0.9600E+02
    -12.299  0.0000E+00  0.9600E+02
    -12.198  0.0000E+00  0.9600E+02
    -12.097  0.0000E+00  0.9600E+02
    -11.995  0.0000E+00  0.9600E+02
    -11.894  0.0000E+00  0.9600E+02
    -11.793  0.0000E+00  0.9600E+02
    -11.692  0.0000E+00  0.9600E+02
    -11.591  0.0000E+00  0.9600E+02
    -11.490  0.0000E+00  0.9600E+02
    -11.389  0.3863E+01  0.9646E+02
    -11.288  0.0000E+00  0.1120E+03
    -11.187  0.0000E+00  0.1120E+03
    -11.086  0.0000E+00  0.1120E+03
    -10.985  0.0000E+00  0.1120E+03
    -10.883  0.0000E+00  0.1120E+03
    -10.782  0.1465E+01  0.1125E+03
    -10.681  0.7327E+01  0.1150E+03
    -10.580  0.8801E+01  0.1207E+03
    -10.479  0.8533E+01  0.1276E+03
    -10.378  0.1468E+01  0.1293E+03
    -10.277  0.1867E+01  0.1371E+03
    -10.176  0.4396E+01  0.1422E+03
    -10.075  0.4261E+01  0.1478E+03
     -9.974  0.4837E+01  0.1558E+03
     -9.873  0.0000E+00  0.1600E+03
     -9.771  0.0000E+00  0.1600E+03
     -9.670  0.0000E+00  0.1600E+03
     -9.569  0.0000E+00  0.1600E+03
     -9.468  0.0000E+00  0.1600E+03
     -9.367  0.0000E+00  0.1600E+03
     -9.266  0.0000E+00  0.1600E+03
     -9.165  0.0000E+00  0.1600E+03
     -9.064  0.0000E+00  0.1600E+03
     -8.963  0.0000E+00  0.1600E+03
     -8.862  0.0000E+00  0.1600E+03
     -8.761  0.0000E+00  0.1600E+03
     -8.659  0.0000E+00  0.1600E+03
     -8.558  0.0000E+00  0.1600E+03
     -8.457  0.0000E+00  0.1600E+03
     -8.356  0.0000E+00  0.1600E+03
     -8.255  0.0000E+00  0.1600E+03
     -8.154  0.0000E+00  0.1600E+03
     -8.053  0.0000E+00  0.1600E+03
     -7.952  0.0000E+00  0.1600E+03
     -7.851  0.0000E+00  0.1600E+03
     -7.750  0.0000E+00  0.1680E+03
     -7.649  0.2837E+02  0.1869E+03
     -7.547  0.0000E+00  0.1920E+03
     -7.446  0.0000E+00  0.1920E+03
     -7.345  0.0000E+00  0.1920E+03
     -7.244  0.0000E+00  0.1920E+03
     -7.143  0.0000E+00  0.1920E+03
     -7.042  0.0000E+00  0.1920E+03
     -6.941  0.0000E+00  0.1921E+03
     -6.840  0.0000E+00  0.1921E+03
     -6.739  0.0000E+00  0.1925E+03
     -6.638  0.0000E+00  0.1934E+03
     -6.536  0.1465E+01  0.1943E+03
     -6.435  0.1465E+01  0.1952E+03
     -6.334  0.2932E+01  0.1967E+03
     -6.233  0.1465E+01  0.1990E+03
     -6.132  0.1678E+01  0.2005E+03
     -6.031  0.2931E+01  0.2028E+03
     -5.930  0.1466E+01  0.2044E+03
     -5.829  0.1247E+02  0.2130E+03
     -5.728  0.2755E+01  0.2220E+03
     -5.627  0.0000E+00  0.2226E+03
     -5.526  0.0000E+00  0.2235E+03
     -5.424  0.0000E+00  0.2239E+03
     -5.323  0.0000E+00  0.2239E+03
     -5.222  0.0000E+00  0.2240E+03
     -5.121  0.0000E+00  0.2240E+03
     -5.020  0.0000E+00  0.2240E+03
     -4.919  0.0000E+00  0.2240E+03
     -4.818  0.0000E+00  0.2240E+03
     -4.717  0.0000E+00  0.2240E+03
     -4.616  0.0000E+00  0.2240E+03
     -4.515  0.0000E+00  0.2240E+03
     -4.414  0.0000E+00  0.2240E+03
     -4.312  0.0000E+00  0.2240E+03
     -4.211  0.0000E+00  0.2240E+03
     -4.110  0.0000E+00  0.2240E+03
     -4.009  0.0000E+00  0.2240E+03
     -3.908  0.0000E+00  0.2240E+03
     -3.807  0.0000E+00  0.2240E+03
     -3.706  0.0000E+00  0.2240E+03
     -3.605  0.1026E+02  0.2280E+03
     -3.504  0.0000E+00  0.2560E+03
     -3.403  0.0000E+00  0.2560E+03
     -3.302  0.0000E+00  0.2560E+03
     -3.200  0.0000E+00  0.2560E+03
     -3.099  0.0000E+00  0.2560E+03
     -2.998  0.0000E+00  0.2560E+03
     -2.897  0.0000E+00  0.2560E+03
     -2.796  0.0000E+00  0.2560E+03
     -2.695  0.0000E+00  0.2560E+03
     -2.594  0.0000E+00  0.2560E+03
     -2.493  0.0000E+00  0.2560E+03
     -2.392  0.0000E+00  0.2560E+03
     -2.291  0.0000E+00  0.2560E+03
     -2.190  0.0000E+00  0.2563E+03
     -2.088  0.1464E+01  0.2588E+03
     -1.987  0.2331E+01  0.2619E+03
     -1.886  0.3322E+01  0.2644E+03
     -1.785  0.4367E+01  0.2670E+03
     -1.684  0.2141E+01  0.2710E+03
     -1.583  0.3181E+01  0.2748E+03
     -1.482  0.4790E+01  0.2786E+03
     -1.381  0.0000E+00  0.2798E+03
     -1.280  0.1215E+01  0.2801E+03
     -1.179  0.2931E+01  0.2831E+03
     -1.078  0.9300E-09  0.2856E+03
     -0.976  0.3572E+01  0.2908E+03
     -0.875  0.2202E+01  0.2958E+03
     -0.774  0.5122E+01  0.2996E+03
     -0.673  0.0000E+00  0.3020E+03
     -0.572  0.6449E+01  0.3060E+03
     -0.471  0.5284E+01  0.3111E+03
     -0.370  0.3665E+01  0.3180E+03
     -0.269  0.4858E+01  0.3216E+03
     -0.168  0.6230E+01  0.3267E+03
     -0.067  0.8873E+01  0.3344E+03
      0.034  0.9154E+01  0.3430E+03
      0.136  0.7427E+00  0.3501E+03
      0.237  0.7343E+00  0.3534E+03
      0.338  0.3400E+01  0.3587E+03
      0.439  0.4453E+01  0.3634E+03
      0.540  0.3356E+01  0.3699E+03
      0.641  0.7613E+00  0.3764E+03
      0.742  0.7329E+01  0.3845E+03
      0.843  0.1463E+01  0.3913E+03
      0.944  0.3484E+01  0.3946E+03
      1.045  0.4147E+00  0.3966E+03
      1.146  0.1502E-06  0.3981E+03
      1.248  0.2380E+00  0.3994E+03
      1.349  0.0000E+00  0.3995E+03
      1.450  0.7321E+00  0.3999E+03
      1.551  0.0000E+00  0.4000E+03
      1.652  0.0000E+00  0.4000E+03
      1.753  0.0000E+00  0.4000E+03
      1.854  0.0000E+00  0.4000E+03
      1.955  0.0000E+00  0.4000E+03
      2.056  0.0000E+00  0.4000E+03
      2.157  0.0000E+00  0.4000E+03
      2.258  0.0000E+00  0.4001E+03
      2.360  0.0000E+00  0.4002E+03
      2.461  0.0000E+00  0.4003E+03
      2.562  0.0000E+00  0.4004E+03
      2.663  0.7327E+00  0.4007E+03
      2.764  0.0000E+00  0.4011E+03
      2.865  0.7301E+00  0.4019E+03
      2.966  0.0000E+00  0.4021E+03
      3.067  0.0000E+00  0.4028E+03
      3.168  0.1462E+01  0.4038E+03
      3.269  0.1462E+01  0.4045E+03
      3.371  0.2931E+01  0.4055E+03
      3.472  0.7326E+00  0.4065E+03
      3.573  0.8011E+00  0.4082E+03
      3.674  0.1886E+01  0.4092E+03
      3.775  0.6484E+00  0.4093E+03
      3.876  0.4277E+00  0.4106E+03
      3.977  0.9345E-12  0.4117E+03
      4.078  0.0000E+00  0.4131E+03
      4.179  0.1465E+01  0.4144E+03
      4.280  0.2965E+00  0.4164E+03
      4.381  0.5754E-07  0.4180E+03
      4.483  0.7327E+00  0.4199E+03
      4.584  0.3505E-01  0.4209E+03
      4.685  0.2108E-01  0.4220E+03
      4.786  0.2198E+01  0.4230E+03
      4.887  0.1669E+01  0.4237E+03
      4.988  0.1465E+01  0.4247E+03
      5.089  0.1465E+01  0.4253E+03
      5.190  0.0000E+00  0.4261E+03
      5.291  0.3495E+01  0.4275E+03
      5.392  0.6676E-01  0.4290E+03
      5.493  0.1520E+01  0.4319E+03
      5.595  0.1775E+01  0.4347E+03
      5.696  0.4033E+01  0.4377E+03
      5.797  0.2198E+01  0.4400E+03
      5.898  0.1348E-03  0.4425E+03
      5.999  0.4361E+01  0.4457E+03
      6.100  0.3981E+01  0.4494E+03
      6.201  0.2875E+01  0.4538E+03
      6.302  0.2259E+01  0.4582E+03
      6.403  0.6360E+01  0.4626E+03
      6.504  0.2977E+01  0.4685E+03
      6.605  0.4902E+00  0.4738E+03
      6.707  0.2221E+01  0.4776E+03
      6.808  0.3663E+01  0.4816E+03
      6.909  0.8026E+01  0.4861E+03
      7.010  0.2935E+01  0.4898E+03
      7.111  0.6595E+01  0.4938E+03
      7.212  0.5060E+01  0.4989E+03
      7.313  0.5129E+01  0.5034E+03
      7.414  0.5131E+01  0.5073E+03
      7.515  0.4396E+01  0.5123E+03
      7.616  0.1808E+00  0.5161E+03
      7.717  0.6899E+01  0.5223E+03
      7.819  0.8186E+01  0.5274E+03
      7.920  0.6819E+01  0.5334E+03
      8.021  0.3058E+01  0.5379E+03
      8.122  0.7327E+00  0.5421E+03
      8.223  0.5862E+01  0.5485E+03
      8.324  0.5750E+01  0.5532E+03
      8.425  0.2634E+01  0.5595E+03
      8.526  0.2213E+01  0.5667E+03
      8.627  0.6595E+01  0.5725E+03
      8.728  0.2932E+01  0.5784E+03
      8.829  0.5157E+01  0.5833E+03
      8.931  0.3314E+01  0.5898E+03
      9.032  0.1719E+01  0.5950E+03
      9.133  0.1910E+01  0.5982E+03
      9.234  0.7327E+00  0.5999E+03
      9.335  0.0000E+00  0.6000E+03
      9.436  0.0000E+00  0.6000E+03
      9.537  0.0000E+00  0.6000E+03
      9.638  0.0000E+00  0.6000E+03
      9.739  0.0000E+00  0.6000E+03
      9.840  0.0000E+00  0.6000E+03
      9.941  0.0000E+00  0.6000E+03
     10.043  0.0000E+00  0.6000E+03
     10.144  0.0000E+00  0.6000E+03
     10.245  0.0000E+00  0.6000E+03
     10.346  0.0000E+00  0.6000E+03
     10.447  0.0000E+00  0.6000E+03
     10.548  0.0000E+00  0.6000E+03
     10.649  0.0000E+00  0.6000E+03
