 running on  192 total cores
 distrk:  each k-point on  192 cores,    1 groups
 distr:  one band on   24 cores,    8 groups
 using from now: INCAR     
 vasp.5.4.1 24Jun15 (build Nov 25 2015 16:39:35) complex                        
  
 POSCAR found type information on POSCAR  C  N  H  Pb I 
 POSCAR found :  5 types and      96 ions
 scaLAPACK will be used

 ----------------------------------------------------------------------------- 
|                                                                             |
|  ADVICE TO THIS USER RUNNING 'VASP/VAMP'   (HEAR YOUR MASTER'S VOICE ...):  |
|                                                                             |
|      You have a (more or less) 'large supercell' and for larger cells       |
|      it might be more efficient to use real space projection opertators     |
|      So try LREAL= Auto  in the INCAR   file.                               |
|      Mind: At the moment your POTCAR file does not contain real space       |
|       projectors, and has to be modified,  BUT if you                       |
|      want to do an extremely  accurate calculation you might also keep the  |
|      reciprocal projection scheme          (i.e. LREAL=.FALSE.)             |
|                                                                             |
 ----------------------------------------------------------------------------- 


 ----------------------------------------------------------------------------- 
|                                                                             |
|  ADVICE TO THIS USER RUNNING 'VASP/VAMP'   (HEAR YOUR MASTER'S VOICE ...):  |
|                                                                             |
|      You enforced a specific xc-type in the INCAR file,                     |
|      a different type was found on the POTCAR file                          |
|          I HOPE YOU KNOW, WHAT YOU ARE  DOING                               |
|                                                                             |
 ----------------------------------------------------------------------------- 

 LDA part: xc-table for Pade appr. of Perdew
 POSCAR, INCAR and KPOINTS ok, starting setup
 WARNING: small aliasing (wrap around) errors must be expected
 FFT: planning ...
 WAVECAR not read
 entering main loop
       N       E                     dE             d eps       ncg     rms          rms(c)
DAV:   1     0.423164483508E+04    0.42316E+04   -0.19305E+05 32544   0.146E+03
DAV:   2     0.844689687050E+03   -0.33870E+04   -0.31367E+04 35632   0.322E+02
DAV:   3     0.234913838747E+03   -0.60978E+03   -0.58949E+03 43960   0.157E+02
DAV:   4     0.189132459374E+03   -0.45781E+02   -0.44727E+02 44104   0.438E+01
DAV:   5     0.186818147955E+03   -0.23143E+01   -0.23029E+01 50328   0.100E+01    0.981E+01
DAV:   6     0.549841702839E+02   -0.13183E+03   -0.15251E+03 37048   0.503E+01    0.484E+01
DAV:   7    -0.946720159847E+02   -0.14966E+03   -0.15895E+02 39208   0.216E+01    0.283E+01
DAV:   8    -0.203185911293E+03   -0.10851E+03   -0.64468E+01 37376   0.130E+01    0.183E+01
DAV:   9    -0.335493788869E+03   -0.13231E+03   -0.12494E+02 36880   0.162E+01    0.908E+00
DAV:  10    -0.382515960572E+03   -0.47022E+02   -0.48105E+01 37272   0.102E+01    0.663E+00
DAV:  11    -0.409968939903E+03   -0.27453E+02   -0.36789E+01 37712   0.809E+00    0.382E+00
DAV:  12    -0.421226899355E+03   -0.11258E+02   -0.17580E+01 40712   0.545E+00    0.254E+00
DAV:  13    -0.422812100929E+03   -0.15852E+01   -0.24360E+00 40040   0.259E+00    0.208E+00
DAV:  14    -0.423483825332E+03   -0.67172E+00   -0.93208E-01 38656   0.134E+00    0.115E+00
DAV:  15    -0.423537735873E+03   -0.53911E-01   -0.17857E-01 42192   0.712E-01    0.629E-01
DAV:  16    -0.423544428706E+03   -0.66928E-02   -0.30212E-02 41432   0.319E-01    0.394E-01
DAV:  17    -0.423547679323E+03   -0.32506E-02   -0.10096E-02 39008   0.170E-01    0.223E-01
DAV:  18    -0.423549401431E+03   -0.17221E-02   -0.26009E-03 39840   0.919E-02    0.826E-02
DAV:  19    -0.423549777613E+03   -0.37618E-03   -0.61705E-04 41496   0.488E-02    0.458E-02
DAV:  20    -0.423550014638E+03   -0.23703E-03   -0.20345E-04 38456   0.269E-02    0.257E-02
DAV:  21    -0.423550146530E+03   -0.13189E-03   -0.12924E-04 37760   0.190E-02    0.137E-02
DAV:  22    -0.423550155893E+03   -0.93629E-05   -0.17012E-05 44096   0.812E-03    0.955E-03
DAV:  23    -0.423550157162E+03   -0.12688E-05   -0.63494E-06 38616   0.392E-03    0.398E-03
DAV:  24    -0.423550159593E+03   -0.24316E-05   -0.25266E-06 34520   0.292E-03    0.170E-03
DAV:  25    -0.423550159740E+03   -0.14700E-06   -0.59887E-07 42120   0.136E-03    0.130E-03
DAV:  26    -0.423550159714E+03    0.26583E-07   -0.10465E-07 43608   0.675E-04    0.967E-04
DAV:  27    -0.423550159663E+03    0.51226E-07   -0.32677E-08 34360   0.393E-04    0.344E-04
DAV:  28    -0.423550159566E+03    0.96203E-07   -0.25731E-08 31280   0.311E-04    0.262E-04
DAV:  29    -0.423550159565E+03    0.18699E-08   -0.37234E-09 29928   0.154E-04
   1 F= -.42355016E+03 E0= -.42355016E+03  d E =0.000000E+00  mag=     0.0000     0.0000     0.0000
Application 22254253 resources: utime ~1663626s, stime ~2571s, Rss ~416016, inblocks ~2670500, outblocks ~3873065
