 vasp.5.4.1 24Jun15 (build Nov 25 2015 16:01:35) complex                        
  
 executed on         CrayXC-Intel date 2016.06.05  01:53:43
 running on   96 total cores
 distrk:  each k-point on   24 cores,    4 groups
 distr:  one band on NCORES_PER_BAND=   6 cores,    4 groups


--------------------------------------------------------------------------------------------------------


 INCAR:
 POTCAR:   PAW C 31May2000                        
 POTCAR:   PAW N 31May2000                        
 POTCAR:   PAW H 06May1998                        
 POTCAR:   PAW Pb_d 30Apr1998                     
 POTCAR:   PAW I 03Oct2001                        

 ----------------------------------------------------------------------------- 
|                                                                             |
|           W    W    AA    RRRRR   N    N  II  N    N   GGGG   !!!           |
|           W    W   A  A   R    R  NN   N  II  NN   N  G    G  !!!           |
|           W    W  A    A  R    R  N N  N  II  N N  N  G       !!!           |
|           W WW W  AAAAAA  RRRRR   N  N N  II  N  N N  G  GGG   !            |
|           WW  WW  A    A  R   R   N   NN  II  N   NN  G    G                |
|           W    W  A    A  R    R  N    N  II  N    N   GGGG   !!!           |
|                                                                             |
|      You have enabled k-point parallelism (KPAR>1).                         |
|      This developmental code was originally  written by Paul Kent at ORNL,  |
|      and carefully double checked in Vienna.                                |
|      GW as well as linear response parallelism added by Martijn Marsman     |
|      and Georg Kresse.                                                      |
|      Carefully verify results versus KPAR=1.                                |
|      Report problems to Paul Kent and Vienna.                               |
|                                                                             |
 ----------------------------------------------------------------------------- 

 POTCAR:   PAW C 31May2000                        
   VRHFIN =C: s2p2                                                              
   LEXCH  = CA                                                                  
   EATOM  =   146.6877 eV,   10.7812 Ry                                         
                                                                                
   TITEL  = PAW C 31May2000                                                     
   LULTRA =        F    use ultrasoft PP ?                                      
   IUNSCR =        0    unscreen: 0-lin 1-nonlin 2-no                           
   RPACOR =     .000    partial core radius                                     
   POMASS =   12.011; ZVAL   =    4.000    mass and valenz                      
   RCORE  =    1.500    outmost cutoff radius                                   
   RWIGS  =    1.630; RWIGS  =     .863    wigner-seitz radius (au A)           
   ENMAX  =  400.000; ENMIN  =  300.000 eV                                      
   ICORE  =        2    local potential                                         
   LCOR   =        T    correct aug charges                                     
   LPAW   =        T    paw PP                                                  
   EAUG   =  644.873                                                            
   DEXC   =     .000                                                            
   RMAX   =    2.266    core radius for proj-oper                               
   RAUG   =    1.300    factor for augmentation sphere                          
   RDEP   =    1.501    radius for radial grids                                 
   RDEPT  =    1.300    core radius for aug-charge                              
   QCUT   =   -5.516; QGAM   =   11.032    optimization parameters              
                                                                                
   Description                                                                  
     l     E      TYP  RCUT    TYP  RCUT                                        
     0   .000     23  1.200                                                     
     0   .000     23  1.200                                                     
     1   .000     23  1.500                                                     
     1  2.500     23  1.500                                                     
     2   .000      7  1.500                                                     
  local pseudopotential read in
  atomic valenz-charges read in
  non local Contribution for L=           0  read in
    real space projection operators read in
  non local Contribution for L=           0  read in
    real space projection operators read in
  non local Contribution for L=           1  read in
    real space projection operators read in
  non local Contribution for L=           1  read in
    real space projection operators read in
    PAW grid and wavefunctions read in
 
   number of l-projection  operators is LMAX  =           4
   number of lm-projection operators is LMMAX =           8
 
 POTCAR:   PAW N 31May2000                        
   VRHFIN =N: s2p3                                                              
   LEXCH  = CA                                                                  
   EATOM  =   263.8773 eV,   19.3944 Ry                                         
                                                                                
   TITEL  = PAW N 31May2000                                                     
   LULTRA =        F    use ultrasoft PP ?                                      
   IUNSCR =        0    unscreen: 0-lin 1-nonlin 2-no                           
   RPACOR =     .000    partial core radius                                     
   POMASS =   14.001; ZVAL   =    5.000    mass and valenz                      
   RCORE  =    1.500    outmost cutoff radius                                   
   RWIGS  =    1.400; RWIGS  =     .741    wigner-seitz radius (au A)           
   ENMAX  =  400.000; ENMIN  =  300.000 eV                                      
   ICORE  =        2    local potential                                         
   LCOR   =        T    correct aug charges                                     
   LPAW   =        T    paw PP                                                  
   EAUG   =  555.011                                                            
   DEXC   =     .000                                                            
   RMAX   =    2.248    core radius for proj-oper                               
   RAUG   =    1.300    factor for augmentation sphere                          
   RDEP   =    1.514    core radius for depl-charge                             
   QCUT   =   -5.561; QGAM   =   11.121    optimization parameters              
                                                                                
   Description                                                                  
     l     E      TYP  RCUT    TYP  RCUT                                        
     0   .000     23  1.200                                                     
     0   .000     23  1.200                                                     
     1   .000     23  1.500                                                     
     1   .700     23  1.500                                                     
     2   .000      7  1.500                                                     
  local pseudopotential read in
  atomic valenz-charges read in
  non local Contribution for L=           0  read in
    real space projection operators read in
  non local Contribution for L=           0  read in
    real space projection operators read in
  non local Contribution for L=           1  read in
    real space projection operators read in
  non local Contribution for L=           1  read in
    real space projection operators read in
    PAW grid and wavefunctions read in
 
   number of l-projection  operators is LMAX  =           4
   number of lm-projection operators is LMMAX =           8
 
 POTCAR:   PAW H 06May1998                        
   VRHFIN =H: ultrasoft test                                                    
   LEXCH  = CA                                                                  
   EATOM  =    12.1334 eV,     .8918 Ry                                         
                                                                                
   TITEL  = PAW H 06May1998                                                     
   LULTRA =        F    use ultrasoft PP ?                                      
   IUNSCR =        0    unscreen: 0-lin 1-nonlin 2-no                           
   RPACOR =     .000    partial core radius                                     
   POMASS =    1.000; ZVAL   =    1.000    mass and valenz                      
   RCORE  =    1.100    outmost cutoff radius                                   
   RWIGS  =     .700; RWIGS  =     .370    wigner-seitz radius (au A)           
   ENMAX  =  250.000; ENMIN  =  200.000 eV                                      
   RCLOC  =     .701    cutoff for local pot                                    
   LCOR   =        T    correct aug charges                                     
   LPAW   =        T    paw PP                                                  
   EAUG   =  400.000                                                            
   RMAX   =    2.177    core radius for proj-oper                               
   RAUG   =    1.200    factor for augmentation sphere                          
   RDEP   =    1.112    core radius for depl-charge                             
   QCUT   =   -5.742; QGAM   =   11.483    optimization parameters              
                                                                                
   Description                                                                  
     l     E      TYP  RCUT    TYP  RCUT                                        
     0   .000     23  1.100                                                     
     0   .500     23  1.100                                                     
     1  -.300     23  1.100                                                     
  local pseudopotential read in
  atomic valenz-charges read in
  non local Contribution for L=           0  read in
    real space projection operators read in
  non local Contribution for L=           0  read in
    real space projection operators read in
  non local Contribution for L=           1  read in
    real space projection operators read in
    PAW grid and wavefunctions read in
 
   number of l-projection  operators is LMAX  =           3
   number of lm-projection operators is LMMAX =           5
 
 POTCAR:   PAW Pb_d 30Apr1998                     
   VRHFIN =Pb:                                                                  
   LEXCH  = CA                                                                  
   EATOM  =  1665.9092 eV,  122.4409 Ry                                         
                                                                                
   TITEL  = PAW Pb_d 30Apr1998                                                  
   LULTRA =        F    use ultrasoft PP ?                                      
   IUNSCR =        1    unscreen: 0-lin 1-nonlin 2-no                           
   RPACOR =    2.200    partial core radius                                     
   POMASS =  207.200; ZVAL   =   14.000    mass and valenz                      
   RCORE  =    2.500    outmost cutoff radius                                   
   RWIGS  =    3.260; RWIGS  =    1.725    wigner-seitz radius (au A)           
   ENMAX  =  237.817; ENMIN  =  178.363 eV                                      
   ICORE  =        3    local potential                                         
   LCOR   =        T    correct aug charges                                     
   LPAW   =        T    paw PP                                                  
   EAUG   =  391.914                                                            
   DEXC   =    -.002                                                            
   RMAX   =    2.990    core radius for proj-oper                               
   RAUG   =    1.300    factor for augmentation sphere                          
   RDEP   =    2.643    core radius for depl-charge                             
   QCUT   =   -4.181; QGAM   =    8.362    optimization parameters              
                                                                                
   Description                                                                  
     l     E      TYP  RCUT    TYP  RCUT                                        
     2   .000     23  2.500                                                     
     2   .100     23  2.500                                                     
     0   .000     23  2.500                                                     
     0  1.000     23  2.500                                                     
     1   .000     23  2.500                                                     
     1  1.000     23  2.500                                                     
     3  -.100      7  2.500                                                     
  local pseudopotential read in
  partial core-charges read in
  atomic valenz-charges read in
  non local Contribution for L=           2  read in
    real space projection operators read in
  non local Contribution for L=           2  read in
    real space projection operators read in
  non local Contribution for L=           0  read in
    real space projection operators read in
  non local Contribution for L=           0  read in
    real space projection operators read in
  non local Contribution for L=           1  read in
    real space projection operators read in
  non local Contribution for L=           1  read in
    real space projection operators read in
    PAW grid and wavefunctions read in
 
   number of l-projection  operators is LMAX  =           6
   number of lm-projection operators is LMMAX =          18
 
 POTCAR:   PAW I 03Oct2001                        
   VRHFIN =I : s2p5                                                             
   LEXCH  = CA                                                                  
   EATOM  =   318.2436 eV,   23.3902 Ry                                         
                                                                                
   TITEL  = PAW I 03Oct2001                                                     
   LULTRA =        F    use ultrasoft PP ?                                      
   IUNSCR =        1    unscreen: 0-lin 1-nonlin 2-no                           
   RPACOR =    2.200    partial core radius                                     
   POMASS =  126.904; ZVAL   =    7.000    mass and valenz                      
   RCORE  =    2.300    outmost cutoff radius                                   
   RWIGS  =    2.810; RWIGS  =    1.487    wigner-seitz radius (au A)           
   ENMAX  =  175.712; ENMIN  =  131.784 eV                                      
   ICORE  =        3    local potential                                         
   LCOR   =        T    correct aug charges                                     
   LPAW   =        T    paw PP                                                  
   EAUG   =  370.139                                                            
   DEXC   =    -.063                                                            
   RMAX   =    3.478    core radius for proj-oper                               
   RAUG   =    1.300    factor for augmentation sphere                          
   RDEP   =    2.392    radius for radial grids                                 
   QCUT   =   -3.594; QGAM   =    7.187    optimization parameters              
                                                                                
   Description                                                                  
     l     E      TYP  RCUT    TYP  RCUT                                        
     0   .000     23  2.300                                                     
     0   .000     23  2.300                                                     
     1   .000     23  2.300                                                     
     1   .000     23  2.300                                                     
     2   .000     23  2.300                                                     
     3  -.100     23  2.300                                                     
  local pseudopotential read in
  partial core-charges read in
  atomic valenz-charges read in
  non local Contribution for L=           0  read in
    real space projection operators read in
  non local Contribution for L=           0  read in
    real space projection operators read in
  non local Contribution for L=           1  read in
    real space projection operators read in
  non local Contribution for L=           1  read in
    real space projection operators read in
  non local Contribution for L=           2  read in
    real space projection operators read in
    PAW grid and wavefunctions read in
 
   number of l-projection  operators is LMAX  =           5
   number of lm-projection operators is LMMAX =          13
 
 PAW C 31May2000                        :
 energy of atom  1       EATOM= -146.6877
 kinetic energy error for atom=    0.0075 (will be added to EATOM!!)
 PAW N 31May2000                        :
 energy of atom  2       EATOM= -263.8773
 kinetic energy error for atom=    0.0135 (will be added to EATOM!!)
 PAW H 06May1998                        :
 energy of atom  3       EATOM=  -12.1334
 kinetic energy error for atom=    0.0018 (will be added to EATOM!!)
 PAW Pb_d 30Apr1998                     :
 energy of atom  4       EATOM=-1665.9092
 kinetic energy error for atom=    0.0047 (will be added to EATOM!!)
 PAW I 03Oct2001                        :
 energy of atom  5       EATOM= -318.2436
 kinetic energy error for atom=    0.0009 (will be added to EATOM!!)
 
 
 POSCAR: MA-Pb-I (Github)                        
  positions in direct lattice
  velocities in cartesian coordinates
 exchange correlation table for  LEXCH =        2
   RHO(1)=    0.500       N(1)  =     2000
   RHO(2)=  100.500       N(2)  =     4000
 


--------------------------------------------------------------------------------------------------------


 ion  position               nearest neighbor table
   1  0.903  1.000  0.996-   3 1.10   5 1.10   4 1.10   2 1.48
   2  0.137  1.000  0.025-   6 1.04   7 1.04   8 1.05   1 1.48
   3  0.865  1.000  0.826-   1 1.10
   4  0.838  0.144  0.072-   1 1.10
   5  0.838  0.857  0.072-   1 1.10
   6  0.208  0.134  0.958-   2 1.04
   7  0.207  0.865  0.958-   2 1.04
   8  0.182  0.000  0.185-   2 1.05
   9  0.476  0.500  0.476-  12 3.07  10 3.15  11 3.15  11 3.15  10 3.18  12 3.23
  10  0.427  0.500  0.973-   9 3.15   9 3.18
  11  0.436  0.000  0.507-   9 3.15   9 3.15
  12  0.963  0.500  0.448-   9 3.07   9 3.23
 
  LATTYP: Found a simple monoclinic cell.
 ALAT       =     6.2901201248
 B/A-ratio  =     0.9974197462
 C/A-ratio  =     1.4105278383
 COS(beta)  =    -0.7044835581
  
  Lattice vectors:
  
 A1 = (  -6.2901201248,   0.0000000000,   0.0000000000)
 A2 = (  -0.0000776940,  -6.2738900180,   0.0000000000)
 A3 = (   6.2504525538,  -0.0001537931,   6.2969150416)


Analysis of symmetry for initial positions (statically):
=====================================================================
 Subroutine PRICEL returns:
 Original cell was already a primitive cell.
 

 Routine SETGRP: Setting up the symmetry group for a 
 simple monoclinic supercell.


 Subroutine GETGRP returns: Found  1 space group operations
 (whereof  1 operations were pure point group operations)
 out of a pool of  4 trial point group operations.


The static configuration has the point symmetry C_1 .


Analysis of symmetry for dynamics (positions and initial velocities):
=====================================================================
 Subroutine PRICEL returns:
 Original cell was already a primitive cell.
 

 Routine SETGRP: Setting up the symmetry group for a 
 simple monoclinic supercell.


 Subroutine GETGRP returns: Found  1 space group operations
 (whereof  1 operations were pure point group operations)
 out of a pool of  4 trial point group operations.


The dynamic configuration has the point symmetry C_1 .


 Subroutine INISYM returns: Found  1 space group operations
 (whereof  1 operations are pure point group operations),
 and found     1 'primitive' translations

 
 
 KPOINTS: Automatically generated mesh SCF: 112, k
  k-points in reciprocal lattice
Space group operators:
 irot       det(A)        alpha          n_x          n_y          n_z        tau_x        tau_y        tau_z
    1     1.000000     0.000000     1.000000     0.000000     0.000000     0.000000     0.000000     0.000000

 ----------------------------------------------------------------------------- 
|                                                                             |
|           W    W    AA    RRRRR   N    N  II  N    N   GGGG   !!!           |
|           W    W   A  A   R    R  NN   N  II  NN   N  G    G  !!!           |
|           W    W  A    A  R    R  N N  N  II  N N  N  G       !!!           |
|           W WW W  AAAAAA  RRRRR   N  N N  II  N  N N  G  GGG   !            |
|           WW  WW  A    A  R   R   N   NN  II  N   NN  G    G                |
|           W    W  A    A  R    R  N    N  II  N    N   GGGG   !!!           |
|                                                                             |
|      The number of bands has been changed from the values supplied          |
|      in the INCAR file. This is a result of running the parallel version.   |
|      The orbitals not found in the WAVECAR file will be initialized with    |
|      random numbers, which is usually adequate. For correlated              |
|      calculations, however, you should redo the groundstate calculation.    |
|      I found NBANDS    =       50  now  NBANDS  =      52                   |
|                                                                             |
 ----------------------------------------------------------------------------- 



--------------------------------------------------------------------------------------------------------




 Dimension of arrays:
   k-points           NKPTS =    628   k-points in BZ     NKDIM =    628   number of bands    NBANDS=     52
   number of dos      NEDOS =    301   number of ions     NIONS =     12
   non local maximal  LDIM  =      6   non local SUM 2l+1 LMDIM =     18
   total plane-waves  NPLWV = 110592
   max r-space proj   IRMAX =      1   max aug-charges    IRDMAX=  25940
   dimension x,y,z NGX =    48 NGY =   48 NGZ =   48
   dimension x,y,z NGXF=    96 NGYF=   96 NGZF=   96
   support grid    NGXF=    96 NGYF=   96 NGZF=   96
   ions per type =               1   1   6   1   3
 NGX,Y,Z   is equivalent  to a cutoff of  12.69, 12.72, 12.67 a.u.
 NGXF,Y,Z  is equivalent  to a cutoff of  25.37, 25.44, 25.34 a.u.


 I would recommend the setting:
   dimension x,y,z NGX =    46 NGY =   46 NGZ =   46
 SYSTEM =  Name                                    
 POSCAR =  MA-Pb-I (Github)                        

 Startparameter for this run:
   NWRITE =      2    write-flag & timer
   PREC   = accura    normal or accurate (medium, high low for compatibility)
   ISTART =      1    job   : 0-new  1-cont  2-samecut
   ICHARG =     11    charge: 1-file 2-atom 10-const
   ISPIN  =      1    spin polarized calculation?
   LNONCOLLINEAR =      F non collinear calculations
   LSORBIT =      F    spin-orbit coupling
   INIWAV =      1    electr: 0-lowe 1-rand  2-diag
   LASPH  =      F    aspherical Exc in radial PAW
   METAGGA=      F    non-selfconsistent MetaGGA calc.

 Electronic Relaxation 1
   ENCUT  =  500.0 eV  36.75 Ry    6.06 a.u.  11.47 11.44 11.48*2*pi/ulx,y,z
   ENINI  =  500.0     initial cutoff
   ENAUG  =  644.9 eV  augmentation charge cutoff
   NELM   =     60;   NELMIN=  2; NELMDL=  0     # of ELM steps 
   EDIFF  = 0.1E-05   stopping-criterion for ELM
   LREAL  =      F    real-space projection
   NLSPLINE    = F    spline interpolate recip. space projectors
   LCOMPAT=      F    compatible to vasp.4.4
   GGA_COMPAT  = T    GGA compatible to vasp.4.4-vasp.4.6
   LMAXPAW     = -100 max onsite density
   LMAXMIX     =    2 max onsite mixed and CHGCAR
   VOSKOWN=      0    Vosko Wilk Nusair interpolation
   ROPT   =    0.00000   0.00000   0.00000   0.00000
   ROPT   =    0.00000
 Ionic relaxation
   EDIFFG = -.5E-02   stopping-criterion for IOM
   NSW    =      0    number of steps for IOM
   NBLOCK =      1;   KBLOCK =      1    inner block; outer block 
   IBRION =     -1    ionic relax: 0-MD 1-quasi-New 2-CG
   NFREE  =      1    steps in history (QN), initial steepest desc. (CG)
   ISIF   =      3    stress and relaxation
   IWAVPR =     10    prediction:  0-non 1-charg 2-wave 3-comb
   ISYM   =      2    0-nonsym 1-usesym 2-fastsym
   LCORR  =      T    Harris-Foulkes like correction to forces

   POTIM  = 0.5000    time-step for ionic-motion
   TEIN   =    0.0    initial temperature
   TEBEG  =    0.0;   TEEND  =   0.0 temperature during run
   SMASS  =  -3.00    Nose mass-parameter (am)
   estimated Nose-frequenzy (Omega)   =  0.10E-29 period in steps =****** mass=  -0.904E-27a.u.
   SCALEE = 1.0000    scale energy and forces
   NPACO  =    256;   APACO  = 16.0  distance and # of slots for P.C.
   PSTRESS=    0.0 pullay stress

  Mass of Ions in am
   POMASS =  12.01 14.00  1.00207.20126.90
  Ionic Valenz
   ZVAL   =   4.00  5.00  1.00 14.00  7.00
  Atomic Wigner-Seitz radii
   RWIGS  =  -1.00 -1.00 -1.00 -1.00 -1.00
  virtual crystal weights 
   VCA    =   1.00  1.00  1.00  1.00  1.00
   NELECT =      50.0000    total number of electrons
   NUPDOWN=      -1.0000    fix difference up-down

 DOS related values:
   EMIN   =  10.00;   EMAX   =-10.00  energy-range for DOS
   EFERMI =   0.00
   ISMEAR =     0;   SIGMA  =   0.01  broadening in eV -4-tet -1-fermi 0-gaus

 Electronic relaxation 2 (details)
   IALGO  =     38    algorithm
   LDIAG  =      T    sub-space diagonalisation (order eigenvalues)
   LSUBROT=      F    optimize rotation matrix (better conditioning)
   TURBO    =      0    0=normal 1=particle mesh
   IRESTART =      0    0=no restart 2=restart with 2 vectors
   NREBOOT  =      0    no. of reboots
   NMIN     =      0    reboot dimension
   EREF     =   0.00    reference energy to select bands
   IMIX   =      4    mixing-type and parameters
     AMIX     =   0.40;   BMIX     =  1.00
     AMIX_MAG =   1.60;   BMIX_MAG =  1.00
     AMIN     =   0.01
     WC   =   100.;   INIMIX=   1;  MIXPRE=   1;  MAXMIX= -45

 Intra band minimization:
   WEIMIN = 0.0000     energy-eigenvalue tresh-hold
   EBREAK =  0.48E-08  absolut break condition
   DEPER  =   0.30     relativ break condition  

   TIME   =   0.40     timestep for ELM

  volume/ion in A,a.u.               =      20.71       139.75
  Fermi-wavevector in a.u.,A,eV,Ry     =   0.959306  1.812825 12.520994  0.920267
  Thomas-Fermi vector in A             =   2.088490
 
 Write flags
   LWAVE  =      T    write WAVECAR
   LCHARG =      T    write CHGCAR
   LVTOT  =      F    write LOCPOT, total local potential
   LVHAR  =      F    write LOCPOT, Hartree potential only
   LELF   =      F    write electronic localiz. function (ELF)
   LORBIT =     10    0 simple, 1 ext, 2 COOP (PROOUT)


 Dipole corrections
   LMONO  =      F    monopole corrections only (constant potential shift)
   LDIPOL =      F    correct potential (dipole corrections)
   IDIPOL =      0    1-x, 2-y, 3-z, 4-all directions 
   EPSILON=  1.0000000 bulk dielectric constant

 Core level calculations are selected ICORELEVEL =  1
 Exchange correlation treatment:
   GGA     =    --    GGA type
   LEXCH   =     2    internal setting for exchange type
   VOSKOWN=      0    Vosko Wilk Nusair interpolation
   LHFCALC =     F    Hartree Fock is set to
   LHFONE  =     F    Hartree Fock one center treatment
   AEXX    =    0.0000 exact exchange contribution

 Linear response parameters
   LEPSILON=     F    determine dielectric tensor
   LRPA    =     F    only Hartree local field effects (RPA)
   LNABLA  =     F    use nabla operator in PAW spheres
   LVEL    =     F    velocity operator in full k-point grid
   LINTERFAST=   F  fast interpolation
   KINTER  =     0    interpolate to denser k-point grid
   CSHIFT  =0.1000    complex shift for real part using Kramers Kronig
   OMEGAMAX=  -1.0    maximum frequency
   DEG_THRESHOLD= 0.2000000E-02 threshold for treating states as degnerate
   RTIME   =    0.100 relaxation time in fs

 Orbital magnetization related:
   ORBITALMAG=     F  switch on orbital magnetization
   LCHIMAG   =     F  perturbation theory with respect to B field
   DQ        =  0.001000  dq finite difference perturbation B field



--------------------------------------------------------------------------------------------------------


 Static calculation
 charge density and potential remain constant during run
 non-spin polarized calculation
 Variant of blocked Davidson
 Davidson routine will perform the subspace rotation
 perform sub-space diagonalisation
    after iterative eigenvector-optimisation
 no mixing
 using additional bands           27
 reciprocal scheme for non local part
 use partial core corrections
 calculate Harris-corrections to forces 
   (improved forces if not selfconsistent)
 use of overlap-Matrix (Vanderbilt PP)
 Gauss-broadening in eV      SIGMA  =   0.01


--------------------------------------------------------------------------------------------------------


  energy-cutoff  :      500.00
  volume of cell :      248.50
      direct lattice vectors                 reciprocal lattice vectors
     6.290120125  0.000000000  0.000000000     0.158979476 -0.000001969  0.001001495
     0.000077694  6.273890018  0.000000000     0.000000000  0.159390744  0.000003893
    -0.039667571 -0.000153793  6.296915042     0.000000000  0.000000000  0.158807923

  length of vectors
     6.290120125  6.273890018  6.297039986     0.158982630  0.159390744  0.158807923


 
 old parameters found on file WAVECAR:
  energy-cutoff  :      500.00
  volume of cell :      248.50
      direct lattice vectors                 reciprocal lattice vectors
     6.290120125  0.000000000  0.000000000     0.158979476 -0.000001969  0.001001495
     0.000077694  6.273890018  0.000000000     0.000000000  0.159390744  0.000003893
    -0.039667571 -0.000153793  6.296915042     0.000000000  0.000000000  0.158807923

  length of vectors

 
 k-points in units of 2pi/SCALE and weight: Automatically generated mesh SCF: 112, k
   0.00000000  0.00000000  0.00000000       0.005
   0.02649658 -0.00000033  0.00016692       0.009
   0.05299316 -0.00000066  0.00033383       0.009
   0.07948974 -0.00000098  0.00050075       0.005
   0.00000000  0.02656512  0.00000065       0.009
   0.02649658  0.02656480  0.00016756       0.009
   0.05299316  0.02656447  0.00033448       0.009
   0.07948974  0.02656414  0.00050140       0.009
  -0.05299316  0.02656578 -0.00033318       0.009
  -0.02649658  0.02656545 -0.00016627       0.009
   0.00000000  0.05313025  0.00000130       0.009
   0.02649658  0.05312992  0.00016821       0.009
   0.05299316  0.05312959  0.00033513       0.009
   0.07948974  0.05312926  0.00050205       0.009
  -0.05299316  0.05313090 -0.00033253       0.009
  -0.02649658  0.05313058 -0.00016562       0.009
   0.00000000  0.07969537  0.00000195       0.005
   0.02649658  0.07969504  0.00016886       0.009
   0.05299316  0.07969472  0.00033578       0.009
   0.07948974  0.07969439  0.00050269       0.005
   0.00000000  0.00000000  0.02646799       0.009
   0.02649658 -0.00000033  0.02663490       0.009
   0.05299316 -0.00000066  0.02680182       0.009
   0.07948974 -0.00000098  0.02696873       0.009
  -0.05299316  0.00000066  0.02613416       0.009
  -0.02649658  0.00000033  0.02630107       0.009
   0.00000000  0.02656512  0.02646864       0.009
   0.02649658  0.02656480  0.02663555       0.009
   0.05299316  0.02656447  0.02680247       0.009
   0.07948974  0.02656414  0.02696938       0.009
  -0.05299316  0.02656578  0.02613480       0.009
  -0.02649658  0.02656545  0.02630172       0.009
   0.00000000  0.05313025  0.02646928       0.009
   0.02649658  0.05312992  0.02663620       0.009
   0.05299316  0.05312959  0.02680312       0.009
   0.07948974  0.05312926  0.02697003       0.009
  -0.05299316  0.05313090  0.02613545       0.009
  -0.02649658  0.05313058  0.02630237       0.009
   0.00000000  0.07969537  0.02646993       0.009
   0.02649658  0.07969504  0.02663685       0.009
   0.05299316  0.07969472  0.02680377       0.009
   0.07948974  0.07969439  0.02697068       0.009
  -0.05299316  0.07969603  0.02613610       0.009
  -0.02649658  0.07969570  0.02630302       0.009
   0.00000000 -0.05313025  0.02646669       0.009
   0.02649658 -0.05313058  0.02663361       0.009
   0.05299316 -0.05313090  0.02680052       0.009
   0.07948974 -0.05313123  0.02696744       0.009
  -0.05299316 -0.05312959  0.02613286       0.009
  -0.02649658 -0.05312992  0.02629977       0.009
   0.00000000 -0.02656512  0.02646734       0.009
   0.02649658 -0.02656545  0.02663425       0.009
   0.05299316 -0.02656578  0.02680117       0.009
   0.07948974 -0.02656611  0.02696809       0.009
  -0.05299316 -0.02656447  0.02613351       0.009
  -0.02649658 -0.02656480  0.02630042       0.009
   0.00000000  0.00000000  0.05293597       0.009
   0.02649658 -0.00000033  0.05310289       0.009
   0.05299316 -0.00000066  0.05326981       0.009
   0.07948974 -0.00000098  0.05343672       0.009
  -0.05299316  0.00000066  0.05260214       0.009
  -0.02649658  0.00000033  0.05276906       0.009
   0.00000000  0.02656512  0.05293662       0.009
   0.02649658  0.02656480  0.05310354       0.009
   0.05299316  0.02656447  0.05327045       0.009
   0.07948974  0.02656414  0.05343737       0.009
  -0.05299316  0.02656578  0.05260279       0.009
  -0.02649658  0.02656545  0.05276971       0.009
   0.00000000  0.05313025  0.05293727       0.009
   0.02649658  0.05312992  0.05310419       0.009
   0.05299316  0.05312959  0.05327110       0.009
   0.07948974  0.05312926  0.05343802       0.009
  -0.05299316  0.05313090  0.05260344       0.009
  -0.02649658  0.05313058  0.05277036       0.009
   0.00000000  0.07969537  0.05293792       0.009
   0.02649658  0.07969504  0.05310484       0.009
   0.05299316  0.07969472  0.05327175       0.009
   0.07948974  0.07969439  0.05343867       0.009
  -0.05299316  0.07969603  0.05260409       0.009
  -0.02649658  0.07969570  0.05277100       0.009
   0.00000000 -0.05313025  0.05293468       0.009
   0.02649658 -0.05313058  0.05310159       0.009
   0.05299316 -0.05313090  0.05326851       0.009
   0.07948974 -0.05313123  0.05343542       0.009
  -0.05299316 -0.05312959  0.05260085       0.009
  -0.02649658 -0.05312992  0.05276776       0.009
   0.00000000 -0.02656512  0.05293533       0.009
   0.02649658 -0.02656545  0.05310224       0.009
   0.05299316 -0.02656578  0.05326916       0.009
   0.07948974 -0.02656611  0.05343607       0.009
  -0.05299316 -0.02656447  0.05260149       0.009
  -0.02649658 -0.02656480  0.05276841       0.009
   0.00000000  0.00000000  0.07940396       0.005
   0.02649658 -0.00000033  0.07957088       0.009
   0.05299316 -0.00000066  0.07973779       0.009
   0.07948974 -0.00000098  0.07990471       0.005
   0.00000000  0.02656512  0.07940461       0.009
   0.02649658  0.02656480  0.07957153       0.009
   0.05299316  0.02656447  0.07973844       0.009
   0.07948974  0.02656414  0.07990536       0.009
  -0.05299316  0.02656578  0.07907078       0.009
  -0.02649658  0.02656545  0.07923769       0.009
   0.00000000  0.05313025  0.07940526       0.009
   0.02649658  0.05312992  0.07957218       0.009
   0.05299316  0.05312959  0.07973909       0.009
   0.07948974  0.05312926  0.07990601       0.009
  -0.05299316  0.05313090  0.07907143       0.009
  -0.02649658  0.05313058  0.07923834       0.009
   0.00000000  0.07969537  0.07940591       0.005
   0.02649658  0.07969504  0.07957282       0.009
   0.05299316  0.07969472  0.07973974       0.009
   0.07948974  0.07969439  0.07990666       0.005
   0.00000000  0.00000000  0.00000000       0.000
   0.00045684  0.00045801  0.00045923       0.000
   0.00091368  0.00091603  0.00091847       0.000
   0.00137051  0.00137404  0.00137770       0.000
   0.00182735  0.00183205  0.00183693       0.000
   0.00228419  0.00229007  0.00229617       0.000
   0.00274103  0.00274808  0.00275540       0.000
   0.00319786  0.00320610  0.00321464       0.000
   0.00365470  0.00366411  0.00367387       0.000
   0.00411154  0.00412212  0.00413310       0.000
   0.00456838  0.00458014  0.00459234       0.000
   0.00502521  0.00503815  0.00505157       0.000
   0.00548205  0.00549616  0.00551080       0.000
   0.00593889  0.00595418  0.00597004       0.000
   0.00639573  0.00641219  0.00642927       0.000
   0.00685256  0.00687021  0.00688851       0.000
   0.00730940  0.00732822  0.00734774       0.000
   0.00776624  0.00778623  0.00780697       0.000
   0.00822308  0.00824425  0.00826621       0.000
   0.00867991  0.00870226  0.00872544       0.000
   0.00913675  0.00916027  0.00918467       0.000
   0.00959359  0.00961829  0.00964391       0.000
   0.01005042  0.01007630  0.01010314       0.000
   0.01050726  0.01053431  0.01056237       0.000
   0.01096410  0.01099233  0.01102161       0.000
   0.01142094  0.01145034  0.01148084       0.000
   0.01187778  0.01190836  0.01194007       0.000
   0.01233461  0.01236637  0.01239931       0.000
   0.01279145  0.01282438  0.01285854       0.000
   0.01324829  0.01328240  0.01331778       0.000
   0.01370513  0.01374041  0.01377701       0.000
   0.01416196  0.01419843  0.01423624       0.000
   0.01461880  0.01465644  0.01469548       0.000
   0.01507564  0.01511445  0.01515471       0.000
   0.01553248  0.01557247  0.01561394       0.000
   0.01598931  0.01603048  0.01607318       0.000
   0.01644615  0.01648849  0.01653241       0.000
   0.01690299  0.01694651  0.01699165       0.000
   0.01735983  0.01740452  0.01745088       0.000
   0.01781667  0.01786254  0.01791011       0.000
   0.01827350  0.01832055  0.01836935       0.000
   0.01873034  0.01877856  0.01882858       0.000
   0.01918718  0.01923658  0.01928781       0.000
   0.01964402  0.01969459  0.01974705       0.000
   0.02010085  0.02015260  0.02020628       0.000
   0.02055769  0.02061062  0.02066551       0.000
   0.02101453  0.02106863  0.02112475       0.000
   0.02147137  0.02152665  0.02158398       0.000
   0.02192820  0.02198466  0.02204321       0.000
   0.02238504  0.02244267  0.02250245       0.000
   0.02284188  0.02290069  0.02296168       0.000
   0.02329872  0.02335870  0.02342092       0.000
   0.02375555  0.02381671  0.02388015       0.000
   0.02421239  0.02427473  0.02433938       0.000
   0.02466923  0.02473274  0.02479862       0.000
   0.02512607  0.02519076  0.02525785       0.000
   0.02558290  0.02564877  0.02571708       0.000
   0.02603974  0.02610678  0.02617632       0.000
   0.02649658  0.02656480  0.02663555       0.000
   0.02695342  0.02702281  0.02709479       0.000
   0.02741025  0.02748082  0.02755402       0.000
   0.02786709  0.02793884  0.02801325       0.000
   0.02832393  0.02839685  0.02847249       0.000
   0.02878077  0.02885486  0.02893172       0.000
   0.02923761  0.02931288  0.02939095       0.000
   0.02969444  0.02977089  0.02985019       0.000
   0.03015128  0.03022891  0.03030942       0.000
   0.03060811  0.03068692  0.03076865       0.000
   0.03106495  0.03114493  0.03122789       0.000
   0.03152179  0.03160294  0.03168712       0.000
   0.03197863  0.03206096  0.03214635       0.000
   0.03243547  0.03251897  0.03260559       0.000
   0.03289231  0.03297699  0.03306482       0.000
   0.03334914  0.03343500  0.03352406       0.000
   0.03380598  0.03389302  0.03398329       0.000
   0.03426282  0.03435103  0.03444253       0.000
   0.03471965  0.03480904  0.03490176       0.000
   0.03517649  0.03526706  0.03536099       0.000
   0.03563333  0.03572507  0.03582022       0.000
   0.03609017  0.03618308  0.03627946       0.000
   0.03654701  0.03664110  0.03673869       0.000
   0.03700384  0.03709911  0.03719793       0.000
   0.03746068  0.03755712  0.03765716       0.000
   0.03791752  0.03801514  0.03811639       0.000
   0.03837436  0.03847315  0.03857563       0.000
   0.03883119  0.03893116  0.03903486       0.000
   0.03928803  0.03938918  0.03949409       0.000
   0.03974487  0.03984719  0.03995333       0.000
   0.04020170  0.04030520  0.04041256       0.000
   0.04065854  0.04076322  0.04087179       0.000
   0.04111538  0.04122123  0.04133103       0.000
   0.04157222  0.04167925  0.04179026       0.000
   0.04202906  0.04213726  0.04224950       0.000
   0.04248590  0.04259528  0.04270873       0.000
   0.04294273  0.04305329  0.04316797       0.000
   0.04339957  0.04351130  0.04362720       0.000
   0.04385641  0.04396932  0.04408643       0.000
   0.04431325  0.04442733  0.04454567       0.000
   0.04477008  0.04488534  0.04500490       0.000
   0.04522692  0.04534336  0.04546413       0.000
   0.04568376  0.04580137  0.04592336       0.000
   0.04614060  0.04625939  0.04638260       0.000
   0.04659743  0.04671740  0.04684183       0.000
   0.04705427  0.04717541  0.04730106       0.000
   0.04751111  0.04763343  0.04776030       0.000
   0.04796795  0.04809144  0.04821953       0.000
   0.04842478  0.04854945  0.04867876       0.000
   0.04888162  0.04900747  0.04913800       0.000
   0.04933846  0.04946548  0.04959723       0.000
   0.04979529  0.04992349  0.05005647       0.000
   0.05025213  0.05038151  0.05051570       0.000
   0.05070897  0.05083952  0.05097494       0.000
   0.05116581  0.05129753  0.05143417       0.000
   0.05162264  0.05175555  0.05189340       0.000
   0.05207948  0.05221356  0.05235264       0.000
   0.05253632  0.05267158  0.05281187       0.000
   0.05299316  0.05312959  0.05327110       0.000
   0.05345000  0.05358761  0.05373034       0.000
   0.05390684  0.05404562  0.05418957       0.000
   0.05436367  0.05450363  0.05464880       0.000
   0.05482050  0.05496164  0.05510803       0.000
   0.05527734  0.05541966  0.05556727       0.000
   0.05573418  0.05587767  0.05602650       0.000
   0.05619102  0.05633569  0.05648574       0.000
   0.05664786  0.05679370  0.05694497       0.000
   0.05710469  0.05725171  0.05740420       0.000
   0.05756153  0.05770973  0.05786344       0.000
   0.05801837  0.05816774  0.05832267       0.000
   0.05847521  0.05862576  0.05878191       0.000
   0.05893205  0.05908377  0.05924114       0.000
   0.05938889  0.05954179  0.05970038       0.000
   0.05984573  0.05999980  0.06015961       0.000
   0.06030256  0.06045781  0.06061884       0.000
   0.06075940  0.06091583  0.06107808       0.000
   0.06121623  0.06137384  0.06153731       0.000
   0.06167307  0.06183185  0.06199654       0.000
   0.06212991  0.06228987  0.06245578       0.000
   0.06258675  0.06274788  0.06291501       0.000
   0.06304358  0.06320589  0.06337424       0.000
   0.06350042  0.06366390  0.06383347       0.000
   0.06395726  0.06412192  0.06429271       0.000
   0.06441410  0.06457993  0.06475194       0.000
   0.06487094  0.06503795  0.06521118       0.000
   0.06532777  0.06549596  0.06567041       0.000
   0.06578461  0.06595398  0.06612965       0.000
   0.06624145  0.06641199  0.06658888       0.000
   0.06669829  0.06687000  0.06704811       0.000
   0.06715512  0.06732802  0.06750735       0.000
   0.06761196  0.06778603  0.06796658       0.000
   0.06806880  0.06824405  0.06842582       0.000
   0.06852564  0.06870206  0.06888505       0.000
   0.06898247  0.06916007  0.06934428       0.000
   0.06943931  0.06961808  0.06980351       0.000
   0.06989615  0.07007610  0.07026275       0.000
   0.07035298  0.07053411  0.07072198       0.000
   0.07080982  0.07099213  0.07118121       0.000
   0.07126666  0.07145014  0.07164045       0.000
   0.07172350  0.07190815  0.07209968       0.000
   0.07218033  0.07236617  0.07255891       0.000
   0.07263717  0.07282418  0.07301815       0.000
   0.07309401  0.07328219  0.07347738       0.000
   0.07355085  0.07374021  0.07393662       0.000
   0.07400769  0.07419822  0.07439585       0.000
   0.07446453  0.07465624  0.07485509       0.000
   0.07492136  0.07511425  0.07531432       0.000
   0.07537820  0.07557226  0.07577355       0.000
   0.07583503  0.07603027  0.07623278       0.000
   0.07629187  0.07648829  0.07669202       0.000
   0.07674871  0.07694630  0.07715125       0.000
   0.07720555  0.07740432  0.07761049       0.000
   0.07766238  0.07786233  0.07806972       0.000
   0.07811922  0.07832034  0.07852895       0.000
   0.07857606  0.07877836  0.07898819       0.000
   0.07903290  0.07923637  0.07944742       0.000
   0.07948974  0.07969439  0.07990666       0.000
   0.07892598  0.07969439  0.07933996       0.000
   0.07836222  0.07969440  0.07877325       0.000
   0.07779847  0.07969441  0.07820656       0.000
   0.07723471  0.07969442  0.07763986       0.000
   0.07667095  0.07969442  0.07707315       0.000
   0.07610720  0.07969443  0.07650646       0.000
   0.07554344  0.07969444  0.07593976       0.000
   0.07497968  0.07969444  0.07537305       0.000
   0.07441593  0.07969445  0.07480636       0.000
   0.07385217  0.07969446  0.07423965       0.000
   0.07328841  0.07969446  0.07367295       0.000
   0.07272465  0.07969447  0.07310626       0.000
   0.07216089  0.07969448  0.07253955       0.000
   0.07159714  0.07969449  0.07197285       0.000
   0.07103338  0.07969449  0.07140616       0.000
   0.07046962  0.07969450  0.07083945       0.000
   0.06990587  0.07969451  0.07027275       0.000
   0.06934211  0.07969451  0.06970606       0.000
   0.06877835  0.07969452  0.06913935       0.000
   0.06821460  0.07969453  0.06857265       0.000
   0.06765084  0.07969453  0.06800596       0.000
   0.06708708  0.07969454  0.06743925       0.000
   0.06652333  0.07969455  0.06687255       0.000
   0.06595957  0.07969456  0.06630586       0.000
   0.06539581  0.07969456  0.06573915       0.000
   0.06483206  0.07969457  0.06517245       0.000
   0.06426830  0.07969458  0.06460576       0.000
   0.06370454  0.07969458  0.06403905       0.000
   0.06314078  0.07969459  0.06347235       0.000
   0.06257703  0.07969460  0.06290566       0.000
   0.06201327  0.07969460  0.06233895       0.000
   0.06144951  0.07969461  0.06177225       0.000
   0.06088576  0.07969462  0.06120556       0.000
   0.06032200  0.07969463  0.06063885       0.000
   0.05975824  0.07969463  0.06007215       0.000
   0.05919449  0.07969464  0.05950546       0.000
   0.05863073  0.07969465  0.05893875       0.000
   0.05806697  0.07969465  0.05837205       0.000
   0.05750322  0.07969466  0.05780536       0.000
   0.05693946  0.07969467  0.05723865       0.000
   0.05637570  0.07969467  0.05667195       0.000
   0.05581195  0.07969468  0.05610526       0.000
   0.05524819  0.07969469  0.05553855       0.000
   0.05468443  0.07969469  0.05497185       0.000
   0.05412068  0.07969470  0.05440516       0.000
   0.05355692  0.07969471  0.05383845       0.000
   0.05299316  0.07969472  0.05327175       0.000
   0.05242940  0.07969472  0.05270505       0.000
   0.05186565  0.07969473  0.05213835       0.000
   0.05130189  0.07969474  0.05157165       0.000
   0.05073813  0.07969474  0.05100496       0.000
   0.05017437  0.07969475  0.05043825       0.000
   0.04961062  0.07969476  0.04987155       0.000
   0.04904686  0.07969476  0.04930485       0.000
   0.04848310  0.07969477  0.04873815       0.000
   0.04791934  0.07969478  0.04817145       0.000
   0.04735559  0.07969479  0.04760475       0.000
   0.04679183  0.07969479  0.04703805       0.000
   0.04622808  0.07969480  0.04647135       0.000
   0.04566432  0.07969481  0.04590465       0.000
   0.04510056  0.07969481  0.04533795       0.000
   0.04453680  0.07969482  0.04477125       0.000
   0.04397305  0.07969483  0.04420456       0.000
   0.04340929  0.07969483  0.04363785       0.000
   0.04284553  0.07969484  0.04307115       0.000
   0.04228177  0.07969485  0.04250445       0.000
   0.04171802  0.07969486  0.04193775       0.000
   0.04115426  0.07969486  0.04137105       0.000
   0.04059050  0.07969487  0.04080435       0.000
   0.04002675  0.07969488  0.04023765       0.000
   0.03946299  0.07969488  0.03967095       0.000
   0.03889923  0.07969489  0.03910425       0.000
   0.03833547  0.07969490  0.03853755       0.000
   0.03777172  0.07969490  0.03797085       0.000
   0.03720796  0.07969491  0.03740415       0.000
   0.03664421  0.07969492  0.03683745       0.000
   0.03608045  0.07969493  0.03627075       0.000
   0.03551669  0.07969493  0.03570405       0.000
   0.03495293  0.07969494  0.03513735       0.000
   0.03438918  0.07969495  0.03457065       0.000
   0.03382542  0.07969495  0.03400395       0.000
   0.03326167  0.07969496  0.03343725       0.000
   0.03269790  0.07969497  0.03287055       0.000
   0.03213415  0.07969497  0.03230385       0.000
   0.03157039  0.07969498  0.03173715       0.000
   0.03100664  0.07969499  0.03117045       0.000
   0.03044288  0.07969500  0.03060375       0.000
   0.02987912  0.07969500  0.03003705       0.000
   0.02931536  0.07969501  0.02947035       0.000
   0.02875161  0.07969502  0.02890365       0.000
   0.02818785  0.07969502  0.02833695       0.000
   0.02762409  0.07969503  0.02777025       0.000
   0.02706034  0.07969504  0.02720355       0.000
   0.02649658  0.07969504  0.02663685       0.000
   0.02593282  0.07969505  0.02607015       0.000
   0.02536906  0.07969506  0.02550345       0.000
   0.02480531  0.07969506  0.02493675       0.000
   0.02424155  0.07969507  0.02437005       0.000
   0.02367780  0.07969508  0.02380335       0.000
   0.02311404  0.07969509  0.02323665       0.000
   0.02255028  0.07969509  0.02266994       0.000
   0.02198653  0.07969510  0.02210325       0.000
   0.02142277  0.07969511  0.02153655       0.000
   0.02085901  0.07969511  0.02096985       0.000
   0.02029525  0.07969512  0.02040315       0.000
   0.01973150  0.07969513  0.01983645       0.000
   0.01916774  0.07969513  0.01926975       0.000
   0.01860398  0.07969514  0.01870305       0.000
   0.01804022  0.07969515  0.01813635       0.000
   0.01747647  0.07969516  0.01756965       0.000
   0.01691271  0.07969516  0.01700295       0.000
   0.01634895  0.07969517  0.01643625       0.000
   0.01578519  0.07969518  0.01586955       0.000
   0.01522144  0.07969518  0.01530285       0.000
   0.01465768  0.07969519  0.01473615       0.000
   0.01409393  0.07969520  0.01416945       0.000
   0.01353017  0.07969520  0.01360275       0.000
   0.01296642  0.07969521  0.01303605       0.000
   0.01240266  0.07969522  0.01246935       0.000
   0.01183890  0.07969523  0.01190265       0.000
   0.01127514  0.07969523  0.01133595       0.000
   0.01071139  0.07969524  0.01076925       0.000
   0.01014763  0.07969525  0.01020255       0.000
   0.00958387  0.07969525  0.00963585       0.000
   0.00902011  0.07969526  0.00906914       0.000
   0.00845636  0.07969527  0.00850245       0.000
   0.00789260  0.07969527  0.00793575       0.000
   0.00732884  0.07969528  0.00736905       0.000
   0.00676508  0.07969529  0.00680235       0.000
   0.00620132  0.07969530  0.00623564       0.000
   0.00563757  0.07969530  0.00566895       0.000
   0.00507381  0.07969531  0.00510225       0.000
   0.00451006  0.07969532  0.00453555       0.000
   0.00394630  0.07969532  0.00396884       0.000
   0.00338255  0.07969533  0.00340215       0.000
   0.00281879  0.07969534  0.00283545       0.000
   0.00225503  0.07969534  0.00226875       0.000
   0.00169127  0.07969535  0.00170205       0.000
   0.00112752  0.07969536  0.00113535       0.000
   0.00056376  0.07969537  0.00056865       0.000
   0.00000000  0.07969537  0.00000195       0.000
   0.00079490  0.07969536  0.00000695       0.000
   0.00158979  0.07969535  0.00001196       0.000
   0.00238469  0.07969534  0.00001697       0.000
   0.00317959  0.07969533  0.00002198       0.000
   0.00397449  0.07969532  0.00002698       0.000
   0.00476938  0.07969531  0.00003199       0.000
   0.00556428  0.07969530  0.00003700       0.000
   0.00635918  0.07969529  0.00004201       0.000
   0.00715408  0.07969528  0.00004701       0.000
   0.00794897  0.07969527  0.00005202       0.000
   0.00874387  0.07969526  0.00005703       0.000
   0.00953877  0.07969525  0.00006204       0.000
   0.01033367  0.07969524  0.00006704       0.000
   0.01112856  0.07969523  0.00007205       0.000
   0.01192346  0.07969522  0.00007706       0.000
   0.01271836  0.07969521  0.00008207       0.000
   0.01351326  0.07969520  0.00008707       0.000
   0.01430815  0.07969519  0.00009208       0.000
   0.01510305  0.07969519  0.00009709       0.000
   0.01589795  0.07969518  0.00010210       0.000
   0.01669284  0.07969517  0.00010710       0.000
   0.01748774  0.07969516  0.00011211       0.000
   0.01828264  0.07969515  0.00011712       0.000
   0.01907754  0.07969514  0.00012213       0.000
   0.01987243  0.07969513  0.00012713       0.000
   0.02066733  0.07969512  0.00013214       0.000
   0.02146223  0.07969511  0.00013715       0.000
   0.02225713  0.07969510  0.00014216       0.000
   0.02305202  0.07969509  0.00014716       0.000
   0.02384692  0.07969508  0.00015217       0.000
   0.02464182  0.07969507  0.00015718       0.000
   0.02543672  0.07969506  0.00016219       0.000
   0.02623161  0.07969505  0.00016719       0.000
   0.02702651  0.07969504  0.00017220       0.000
   0.02782141  0.07969503  0.00017721       0.000
   0.02861630  0.07969502  0.00018222       0.000
   0.02941120  0.07969501  0.00018722       0.000
   0.03020610  0.07969500  0.00019223       0.000
   0.03100100  0.07969499  0.00019724       0.000
   0.03179589  0.07969498  0.00020225       0.000
   0.03259079  0.07969497  0.00020725       0.000
   0.03338569  0.07969496  0.00021226       0.000
   0.03418059  0.07969495  0.00021727       0.000
   0.03497548  0.07969494  0.00022228       0.000
   0.03577038  0.07969493  0.00022728       0.000
   0.03656528  0.07969492  0.00023229       0.000
   0.03736018  0.07969491  0.00023730       0.000
   0.03815507  0.07969490  0.00024231       0.000
   0.03894997  0.07969489  0.00024731       0.000
   0.03974487  0.07969488  0.00025232       0.000
   0.04053977  0.07969487  0.00025733       0.000
   0.04133466  0.07969486  0.00026234       0.000
   0.04212956  0.07969485  0.00026734       0.000
   0.04292446  0.07969484  0.00027235       0.000
   0.04371936  0.07969483  0.00027736       0.000
   0.04451425  0.07969482  0.00028237       0.000
   0.04530915  0.07969481  0.00028737       0.000
   0.04610405  0.07969480  0.00029238       0.000
   0.04689894  0.07969479  0.00029739       0.000
   0.04769384  0.07969478  0.00030239       0.000
   0.04848874  0.07969477  0.00030740       0.000
   0.04928364  0.07969476  0.00031241       0.000
   0.05007853  0.07969475  0.00031742       0.000
   0.05087343  0.07969474  0.00032242       0.000
   0.05166833  0.07969473  0.00032743       0.000
   0.05246322  0.07969472  0.00033244       0.000
   0.05325812  0.07969471  0.00033745       0.000
   0.05405302  0.07969470  0.00034245       0.000
   0.05484792  0.07969469  0.00034746       0.000
   0.05564281  0.07969468  0.00035247       0.000
   0.05643771  0.07969467  0.00035748       0.000
   0.05723261  0.07969466  0.00036248       0.000
   0.05802751  0.07969465  0.00036749       0.000
   0.05882241  0.07969464  0.00037250       0.000
   0.05961730  0.07969463  0.00037751       0.000
   0.06041220  0.07969462  0.00038251       0.000
   0.06120710  0.07969461  0.00038752       0.000
   0.06200199  0.07969460  0.00039253       0.000
   0.06279689  0.07969459  0.00039754       0.000
   0.06359179  0.07969458  0.00040254       0.000
   0.06438669  0.07969457  0.00040755       0.000
   0.06518159  0.07969456  0.00041256       0.000
   0.06597648  0.07969456  0.00041757       0.000
   0.06677138  0.07969455  0.00042257       0.000
   0.06756627  0.07969454  0.00042758       0.000
   0.06836117  0.07969453  0.00043259       0.000
   0.06915607  0.07969452  0.00043760       0.000
   0.06995097  0.07969451  0.00044260       0.000
   0.07074587  0.07969450  0.00044761       0.000
   0.07154076  0.07969449  0.00045262       0.000
   0.07233566  0.07969448  0.00045763       0.000
   0.07313056  0.07969447  0.00046263       0.000
   0.07392546  0.07969446  0.00046764       0.000
   0.07472035  0.07969445  0.00047265       0.000
   0.07551525  0.07969444  0.00047766       0.000
   0.07631015  0.07969443  0.00048266       0.000
   0.07710504  0.07969442  0.00048767       0.000
   0.07789994  0.07969441  0.00049268       0.000
   0.07869484  0.07969440  0.00049769       0.000
   0.07948974  0.07969439  0.00050269       0.000
   0.07948974  0.07969439  0.00129673       0.000
   0.07948974  0.07969439  0.00209077       0.000
   0.07948974  0.07969439  0.00288481       0.000
   0.07948974  0.07969439  0.00367885       0.000
   0.07948974  0.07969439  0.00447289       0.000
   0.07948974  0.07969439  0.00526693       0.000
   0.07948974  0.07969439  0.00606097       0.000
   0.07948974  0.07969439  0.00685501       0.000
   0.07948974  0.07969439  0.00764905       0.000
   0.07948974  0.07969439  0.00844309       0.000
   0.07948974  0.07969439  0.00923713       0.000
   0.07948974  0.07969439  0.01003117       0.000
   0.07948974  0.07969439  0.01082521       0.000
   0.07948974  0.07969439  0.01161925       0.000
   0.07948974  0.07969439  0.01241329       0.000
   0.07948974  0.07969439  0.01320733       0.000
   0.07948974  0.07969439  0.01400137       0.000
   0.07948974  0.07969439  0.01479541       0.000
   0.07948974  0.07969439  0.01558945       0.000
   0.07948974  0.07969439  0.01638348       0.000
   0.07948974  0.07969439  0.01717753       0.000
   0.07948974  0.07969439  0.01797157       0.000
   0.07948974  0.07969439  0.01876560       0.000
   0.07948974  0.07969439  0.01955964       0.000
   0.07948974  0.07969439  0.02035368       0.000
   0.07948974  0.07969439  0.02114772       0.000
   0.07948974  0.07969439  0.02194176       0.000
   0.07948974  0.07969439  0.02273580       0.000
   0.07948974  0.07969439  0.02352984       0.000
   0.07948974  0.07969439  0.02432388       0.000
   0.07948974  0.07969439  0.02511792       0.000
   0.07948974  0.07969439  0.02591196       0.000
   0.07948974  0.07969439  0.02670600       0.000
   0.07948974  0.07969439  0.02750004       0.000
   0.07948974  0.07969439  0.02829408       0.000
   0.07948974  0.07969439  0.02908812       0.000
   0.07948974  0.07969439  0.02988216       0.000
   0.07948974  0.07969439  0.03067620       0.000
   0.07948974  0.07969439  0.03147024       0.000
   0.07948974  0.07969439  0.03226428       0.000
   0.07948974  0.07969439  0.03305832       0.000
   0.07948974  0.07969439  0.03385236       0.000
   0.07948974  0.07969439  0.03464640       0.000
   0.07948974  0.07969439  0.03544044       0.000
   0.07948974  0.07969439  0.03623448       0.000
   0.07948974  0.07969439  0.03702851       0.000
   0.07948974  0.07969439  0.03782256       0.000
   0.07948974  0.07969439  0.03861659       0.000
   0.07948974  0.07969439  0.03941063       0.000
   0.07948974  0.07969439  0.04020467       0.000
   0.07948974  0.07969439  0.04099871       0.000
   0.07948974  0.07969439  0.04179275       0.000
   0.07948974  0.07969439  0.04258679       0.000
   0.07948974  0.07969439  0.04338083       0.000
   0.07948974  0.07969439  0.04417487       0.000
   0.07948974  0.07969439  0.04496891       0.000
   0.07948974  0.07969439  0.04576295       0.000
   0.07948974  0.07969439  0.04655699       0.000
   0.07948974  0.07969439  0.04735103       0.000
   0.07948974  0.07969439  0.04814507       0.000
   0.07948974  0.07969439  0.04893911       0.000
   0.07948974  0.07969439  0.04973315       0.000
   0.07948974  0.07969439  0.05052719       0.000
   0.07948974  0.07969439  0.05132123       0.000
   0.07948974  0.07969439  0.05211527       0.000
   0.07948974  0.07969439  0.05290931       0.000
   0.07948974  0.07969439  0.05370335       0.000
   0.07948974  0.07969439  0.05449739       0.000
   0.07948974  0.07969439  0.05529143       0.000
   0.07948974  0.07969439  0.05608547       0.000
   0.07948974  0.07969439  0.05687951       0.000
   0.07948974  0.07969439  0.05767354       0.000
   0.07948974  0.07969439  0.05846758       0.000
   0.07948974  0.07969439  0.05926163       0.000
   0.07948974  0.07969439  0.06005567       0.000
   0.07948974  0.07969439  0.06084970       0.000
   0.07948974  0.07969439  0.06164374       0.000
   0.07948974  0.07969439  0.06243778       0.000
   0.07948974  0.07969439  0.06323182       0.000
   0.07948974  0.07969439  0.06402586       0.000
   0.07948974  0.07969439  0.06481990       0.000
   0.07948974  0.07969439  0.06561394       0.000
   0.07948974  0.07969439  0.06640798       0.000
   0.07948974  0.07969439  0.06720202       0.000
   0.07948974  0.07969439  0.06799606       0.000
   0.07948974  0.07969439  0.06879010       0.000
   0.07948974  0.07969439  0.06958414       0.000
   0.07948974  0.07969439  0.07037818       0.000
   0.07948974  0.07969439  0.07117222       0.000
   0.07948974  0.07969439  0.07196626       0.000
   0.07948974  0.07969439  0.07276030       0.000
   0.07948974  0.07969439  0.07355434       0.000
   0.07948974  0.07969439  0.07434838       0.000
   0.07948974  0.07969439  0.07514242       0.000
   0.07948974  0.07969439  0.07593646       0.000
   0.07948974  0.07969439  0.07673050       0.000
   0.07948974  0.07969439  0.07752453       0.000
   0.07948974  0.07969439  0.07831857       0.000
   0.07948974  0.07969439  0.07911261       0.000
   0.07948974  0.07969439  0.07990666       0.000
 
 k-points in reciprocal lattice and weights: Automatically generated mesh SCF: 112, k
   0.00000000  0.00000000  0.00000000       0.005
   0.16666667  0.00000000  0.00000000       0.009
   0.33333333  0.00000000  0.00000000       0.009
   0.50000000  0.00000000  0.00000000       0.005
   0.00000000  0.16666667  0.00000000       0.009
   0.16666667  0.16666667  0.00000000       0.009
   0.33333333  0.16666667  0.00000000       0.009
   0.50000000  0.16666667  0.00000000       0.009
  -0.33333333  0.16666667  0.00000000       0.009
  -0.16666667  0.16666667  0.00000000       0.009
   0.00000000  0.33333333  0.00000000       0.009
   0.16666667  0.33333333  0.00000000       0.009
   0.33333333  0.33333333  0.00000000       0.009
   0.50000000  0.33333333  0.00000000       0.009
  -0.33333333  0.33333333  0.00000000       0.009
  -0.16666667  0.33333333  0.00000000       0.009
   0.00000000  0.50000000  0.00000000       0.005
   0.16666667  0.50000000  0.00000000       0.009
   0.33333333  0.50000000  0.00000000       0.009
   0.50000000  0.50000000  0.00000000       0.005
   0.00000000  0.00000000  0.16666667       0.009
   0.16666667  0.00000000  0.16666667       0.009
   0.33333333  0.00000000  0.16666667       0.009
   0.50000000  0.00000000  0.16666667       0.009
  -0.33333333  0.00000000  0.16666667       0.009
  -0.16666667  0.00000000  0.16666667       0.009
   0.00000000  0.16666667  0.16666667       0.009
   0.16666667  0.16666667  0.16666667       0.009
   0.33333333  0.16666667  0.16666667       0.009
   0.50000000  0.16666667  0.16666667       0.009
  -0.33333333  0.16666667  0.16666667       0.009
  -0.16666667  0.16666667  0.16666667       0.009
   0.00000000  0.33333333  0.16666667       0.009
   0.16666667  0.33333333  0.16666667       0.009
   0.33333333  0.33333333  0.16666667       0.009
   0.50000000  0.33333333  0.16666667       0.009
  -0.33333333  0.33333333  0.16666667       0.009
  -0.16666667  0.33333333  0.16666667       0.009
   0.00000000  0.50000000  0.16666667       0.009
   0.16666667  0.50000000  0.16666667       0.009
   0.33333333  0.50000000  0.16666667       0.009
   0.50000000  0.50000000  0.16666667       0.009
  -0.33333333  0.50000000  0.16666667       0.009
  -0.16666667  0.50000000  0.16666667       0.009
   0.00000000 -0.33333333  0.16666667       0.009
   0.16666667 -0.33333333  0.16666667       0.009
   0.33333333 -0.33333333  0.16666667       0.009
   0.50000000 -0.33333333  0.16666667       0.009
  -0.33333333 -0.33333333  0.16666667       0.009
  -0.16666667 -0.33333333  0.16666667       0.009
   0.00000000 -0.16666667  0.16666667       0.009
   0.16666667 -0.16666667  0.16666667       0.009
   0.33333333 -0.16666667  0.16666667       0.009
   0.50000000 -0.16666667  0.16666667       0.009
  -0.33333333 -0.16666667  0.16666667       0.009
  -0.16666667 -0.16666667  0.16666667       0.009
   0.00000000  0.00000000  0.33333333       0.009
   0.16666667  0.00000000  0.33333333       0.009
   0.33333333  0.00000000  0.33333333       0.009
   0.50000000  0.00000000  0.33333333       0.009
  -0.33333333  0.00000000  0.33333333       0.009
  -0.16666667  0.00000000  0.33333333       0.009
   0.00000000  0.16666667  0.33333333       0.009
   0.16666667  0.16666667  0.33333333       0.009
   0.33333333  0.16666667  0.33333333       0.009
   0.50000000  0.16666667  0.33333333       0.009
  -0.33333333  0.16666667  0.33333333       0.009
  -0.16666667  0.16666667  0.33333333       0.009
   0.00000000  0.33333333  0.33333333       0.009
   0.16666667  0.33333333  0.33333333       0.009
   0.33333333  0.33333333  0.33333333       0.009
   0.50000000  0.33333333  0.33333333       0.009
  -0.33333333  0.33333333  0.33333333       0.009
  -0.16666667  0.33333333  0.33333333       0.009
   0.00000000  0.50000000  0.33333333       0.009
   0.16666667  0.50000000  0.33333333       0.009
   0.33333333  0.50000000  0.33333333       0.009
   0.50000000  0.50000000  0.33333333       0.009
  -0.33333333  0.50000000  0.33333333       0.009
  -0.16666667  0.50000000  0.33333333       0.009
   0.00000000 -0.33333333  0.33333333       0.009
   0.16666667 -0.33333333  0.33333333       0.009
   0.33333333 -0.33333333  0.33333333       0.009
   0.50000000 -0.33333333  0.33333333       0.009
  -0.33333333 -0.33333333  0.33333333       0.009
  -0.16666667 -0.33333333  0.33333333       0.009
   0.00000000 -0.16666667  0.33333333       0.009
   0.16666667 -0.16666667  0.33333333       0.009
   0.33333333 -0.16666667  0.33333333       0.009
   0.50000000 -0.16666667  0.33333333       0.009
  -0.33333333 -0.16666667  0.33333333       0.009
  -0.16666667 -0.16666667  0.33333333       0.009
   0.00000000  0.00000000  0.50000000       0.005
   0.16666667  0.00000000  0.50000000       0.009
   0.33333333  0.00000000  0.50000000       0.009
   0.50000000  0.00000000  0.50000000       0.005
   0.00000000  0.16666667  0.50000000       0.009
   0.16666667  0.16666667  0.50000000       0.009
   0.33333333  0.16666667  0.50000000       0.009
   0.50000000  0.16666667  0.50000000       0.009
  -0.33333333  0.16666667  0.50000000       0.009
  -0.16666667  0.16666667  0.50000000       0.009
   0.00000000  0.33333333  0.50000000       0.009
   0.16666667  0.33333333  0.50000000       0.009
   0.33333333  0.33333333  0.50000000       0.009
   0.50000000  0.33333333  0.50000000       0.009
  -0.33333333  0.33333333  0.50000000       0.009
  -0.16666667  0.33333333  0.50000000       0.009
   0.00000000  0.50000000  0.50000000       0.005
   0.16666667  0.50000000  0.50000000       0.009
   0.33333333  0.50000000  0.50000000       0.009
   0.50000000  0.50000000  0.50000000       0.005
   0.00000000  0.00000000  0.00000000       0.000
   0.00287356  0.00287356  0.00287356       0.000
   0.00574713  0.00574713  0.00574713       0.000
   0.00862069  0.00862069  0.00862069       0.000
   0.01149425  0.01149425  0.01149425       0.000
   0.01436782  0.01436782  0.01436782       0.000
   0.01724138  0.01724138  0.01724138       0.000
   0.02011494  0.02011494  0.02011494       0.000
   0.02298851  0.02298851  0.02298851       0.000
   0.02586207  0.02586207  0.02586207       0.000
   0.02873563  0.02873563  0.02873563       0.000
   0.03160919  0.03160919  0.03160919       0.000
   0.03448276  0.03448276  0.03448276       0.000
   0.03735632  0.03735632  0.03735632       0.000
   0.04022988  0.04022988  0.04022988       0.000
   0.04310345  0.04310345  0.04310345       0.000
   0.04597701  0.04597701  0.04597701       0.000
   0.04885057  0.04885057  0.04885057       0.000
   0.05172414  0.05172414  0.05172414       0.000
   0.05459770  0.05459770  0.05459770       0.000
   0.05747126  0.05747126  0.05747126       0.000
   0.06034483  0.06034483  0.06034483       0.000
   0.06321838  0.06321838  0.06321838       0.000
   0.06609195  0.06609195  0.06609195       0.000
   0.06896552  0.06896552  0.06896552       0.000
   0.07183908  0.07183908  0.07183908       0.000
   0.07471264  0.07471264  0.07471264       0.000
   0.07758620  0.07758620  0.07758620       0.000
   0.08045977  0.08045977  0.08045977       0.000
   0.08333334  0.08333334  0.08333334       0.000
   0.08620689  0.08620689  0.08620689       0.000
   0.08908046  0.08908046  0.08908046       0.000
   0.09195402  0.09195402  0.09195402       0.000
   0.09482758  0.09482758  0.09482758       0.000
   0.09770115  0.09770115  0.09770115       0.000
   0.10057471  0.10057471  0.10057471       0.000
   0.10344828  0.10344828  0.10344828       0.000
   0.10632184  0.10632184  0.10632184       0.000
   0.10919540  0.10919540  0.10919540       0.000
   0.11206897  0.11206897  0.11206897       0.000
   0.11494253  0.11494253  0.11494253       0.000
   0.11781609  0.11781609  0.11781609       0.000
   0.12068965  0.12068965  0.12068965       0.000
   0.12356322  0.12356322  0.12356322       0.000
   0.12643677  0.12643677  0.12643677       0.000
   0.12931034  0.12931034  0.12931034       0.000
   0.13218391  0.13218391  0.13218391       0.000
   0.13505748  0.13505748  0.13505748       0.000
   0.13793103  0.13793103  0.13793103       0.000
   0.14080459  0.14080459  0.14080459       0.000
   0.14367816  0.14367816  0.14367816       0.000
   0.14655173  0.14655173  0.14655173       0.000
   0.14942528  0.14942528  0.14942528       0.000
   0.15229884  0.15229884  0.15229884       0.000
   0.15517241  0.15517241  0.15517241       0.000
   0.15804598  0.15804598  0.15804598       0.000
   0.16091953  0.16091953  0.16091953       0.000
   0.16379310  0.16379310  0.16379310       0.000
   0.16666667  0.16666667  0.16666667       0.000
   0.16954024  0.16954024  0.16954024       0.000
   0.17241378  0.17241378  0.17241378       0.000
   0.17528735  0.17528735  0.17528735       0.000
   0.17816092  0.17816092  0.17816092       0.000
   0.18103448  0.18103448  0.18103448       0.000
   0.18390805  0.18390805  0.18390805       0.000
   0.18678162  0.18678162  0.18678162       0.000
   0.18965517  0.18965517  0.18965517       0.000
   0.19252872  0.19252872  0.19252872       0.000
   0.19540229  0.19540229  0.19540229       0.000
   0.19827585  0.19827585  0.19827585       0.000
   0.20114942  0.20114942  0.20114942       0.000
   0.20402299  0.20402299  0.20402299       0.000
   0.20689656  0.20689656  0.20689656       0.000
   0.20977011  0.20977011  0.20977011       0.000
   0.21264368  0.21264368  0.21264368       0.000
   0.21551725  0.21551725  0.21551725       0.000
   0.21839079  0.21839079  0.21839079       0.000
   0.22126436  0.22126436  0.22126436       0.000
   0.22413793  0.22413793  0.22413793       0.000
   0.22701149  0.22701149  0.22701149       0.000
   0.22988506  0.22988506  0.22988506       0.000
   0.23275863  0.23275863  0.23275863       0.000
   0.23563218  0.23563218  0.23563218       0.000
   0.23850574  0.23850574  0.23850574       0.000
   0.24137931  0.24137931  0.24137931       0.000
   0.24425286  0.24425286  0.24425286       0.000
   0.24712643  0.24712643  0.24712643       0.000
   0.25000000  0.25000000  0.25000000       0.000
   0.25287354  0.25287354  0.25287354       0.000
   0.25574711  0.25574711  0.25574711       0.000
   0.25862068  0.25862068  0.25862068       0.000
   0.26149425  0.26149425  0.26149425       0.000
   0.26436782  0.26436782  0.26436782       0.000
   0.26724139  0.26724139  0.26724139       0.000
   0.27011496  0.27011496  0.27011496       0.000
   0.27298850  0.27298850  0.27298850       0.000
   0.27586207  0.27586207  0.27586207       0.000
   0.27873564  0.27873564  0.27873564       0.000
   0.28160918  0.28160918  0.28160918       0.000
   0.28448275  0.28448275  0.28448275       0.000
   0.28735632  0.28735632  0.28735632       0.000
   0.29022989  0.29022989  0.29022989       0.000
   0.29310346  0.29310346  0.29310346       0.000
   0.29597700  0.29597700  0.29597700       0.000
   0.29885057  0.29885057  0.29885057       0.000
   0.30172414  0.30172414  0.30172414       0.000
   0.30459768  0.30459768  0.30459768       0.000
   0.30747125  0.30747125  0.30747125       0.000
   0.31034482  0.31034482  0.31034482       0.000
   0.31321838  0.31321838  0.31321838       0.000
   0.31609195  0.31609195  0.31609195       0.000
   0.31896552  0.31896552  0.31896552       0.000
   0.32183906  0.32183906  0.32183906       0.000
   0.32471263  0.32471263  0.32471263       0.000
   0.32758620  0.32758620  0.32758620       0.000
   0.33045977  0.33045977  0.33045977       0.000
   0.33333334  0.33333334  0.33333334       0.000
   0.33620691  0.33620691  0.33620691       0.000
   0.33908048  0.33908048  0.33908048       0.000
   0.34195399  0.34195399  0.34195399       0.000
   0.34482756  0.34482756  0.34482756       0.000
   0.34770113  0.34770113  0.34770113       0.000
   0.35057470  0.35057470  0.35057470       0.000
   0.35344827  0.35344827  0.35344827       0.000
   0.35632184  0.35632184  0.35632184       0.000
   0.35919538  0.35919538  0.35919538       0.000
   0.36206895  0.36206895  0.36206895       0.000
   0.36494252  0.36494252  0.36494252       0.000
   0.36781609  0.36781609  0.36781609       0.000
   0.37068966  0.37068966  0.37068966       0.000
   0.37356323  0.37356323  0.37356323       0.000
   0.37643680  0.37643680  0.37643680       0.000
   0.37931034  0.37931034  0.37931034       0.000
   0.38218391  0.38218391  0.38218391       0.000
   0.38505745  0.38505745  0.38505745       0.000
   0.38793102  0.38793102  0.38793102       0.000
   0.39080459  0.39080459  0.39080459       0.000
   0.39367816  0.39367816  0.39367816       0.000
   0.39655170  0.39655170  0.39655170       0.000
   0.39942527  0.39942527  0.39942527       0.000
   0.40229884  0.40229884  0.40229884       0.000
   0.40517241  0.40517241  0.40517241       0.000
   0.40804598  0.40804598  0.40804598       0.000
   0.41091955  0.41091955  0.41091955       0.000
   0.41379312  0.41379312  0.41379312       0.000
   0.41666666  0.41666666  0.41666666       0.000
   0.41954023  0.41954023  0.41954023       0.000
   0.42241380  0.42241380  0.42241380       0.000
   0.42528737  0.42528737  0.42528737       0.000
   0.42816094  0.42816094  0.42816094       0.000
   0.43103451  0.43103451  0.43103451       0.000
   0.43390802  0.43390802  0.43390802       0.000
   0.43678159  0.43678159  0.43678159       0.000
   0.43965515  0.43965515  0.43965515       0.000
   0.44252872  0.44252872  0.44252872       0.000
   0.44540229  0.44540229  0.44540229       0.000
   0.44827586  0.44827586  0.44827586       0.000
   0.45114940  0.45114940  0.45114940       0.000
   0.45402297  0.45402297  0.45402297       0.000
   0.45689654  0.45689654  0.45689654       0.000
   0.45977011  0.45977011  0.45977011       0.000
   0.46264368  0.46264368  0.46264368       0.000
   0.46551725  0.46551725  0.46551725       0.000
   0.46839082  0.46839082  0.46839082       0.000
   0.47126436  0.47126436  0.47126436       0.000
   0.47413793  0.47413793  0.47413793       0.000
   0.47701147  0.47701147  0.47701147       0.000
   0.47988504  0.47988504  0.47988504       0.000
   0.48275861  0.48275861  0.48275861       0.000
   0.48563218  0.48563218  0.48563218       0.000
   0.48850572  0.48850572  0.48850572       0.000
   0.49137929  0.49137929  0.49137929       0.000
   0.49425286  0.49425286  0.49425286       0.000
   0.49712643  0.49712643  0.49712643       0.000
   0.50000000  0.50000000  0.50000000       0.000
   0.49645391  0.50000000  0.49645391       0.000
   0.49290779  0.50000000  0.49290779       0.000
   0.48936170  0.50000000  0.48936170       0.000
   0.48581561  0.50000000  0.48581561       0.000
   0.48226950  0.50000000  0.48226950       0.000
   0.47872341  0.50000000  0.47872341       0.000
   0.47517732  0.50000000  0.47517732       0.000
   0.47163120  0.50000000  0.47163120       0.000
   0.46808511  0.50000000  0.46808511       0.000
   0.46453899  0.50000000  0.46453899       0.000
   0.46099290  0.50000000  0.46099290       0.000
   0.45744681  0.50000000  0.45744681       0.000
   0.45390069  0.50000000  0.45390069       0.000
   0.45035461  0.50000000  0.45035461       0.000
   0.44680852  0.50000000  0.44680852       0.000
   0.44326240  0.50000000  0.44326240       0.000
   0.43971631  0.50000000  0.43971631       0.000
   0.43617022  0.50000000  0.43617022       0.000
   0.43262410  0.50000000  0.43262410       0.000
   0.42907801  0.50000000  0.42907801       0.000
   0.42553192  0.50000000  0.42553192       0.000
   0.42198581  0.50000000  0.42198581       0.000
   0.41843972  0.50000000  0.41843972       0.000
   0.41489363  0.50000000  0.41489363       0.000
   0.41134751  0.50000000  0.41134751       0.000
   0.40780142  0.50000000  0.40780142       0.000
   0.40425533  0.50000000  0.40425533       0.000
   0.40070921  0.50000000  0.40070921       0.000
   0.39716312  0.50000000  0.39716312       0.000
   0.39361703  0.50000000  0.39361703       0.000
   0.39007092  0.50000000  0.39007092       0.000
   0.38652483  0.50000000  0.38652483       0.000
   0.38297874  0.50000000  0.38297874       0.000
   0.37943262  0.50000000  0.37943262       0.000
   0.37588653  0.50000000  0.37588653       0.000
   0.37234044  0.50000000  0.37234044       0.000
   0.36879432  0.50000000  0.36879432       0.000
   0.36524823  0.50000000  0.36524823       0.000
   0.36170214  0.50000000  0.36170214       0.000
   0.35815603  0.50000000  0.35815603       0.000
   0.35460994  0.50000000  0.35460994       0.000
   0.35106385  0.50000000  0.35106385       0.000
   0.34751773  0.50000000  0.34751773       0.000
   0.34397164  0.50000000  0.34397164       0.000
   0.34042555  0.50000000  0.34042555       0.000
   0.33687943  0.50000000  0.33687943       0.000
   0.33333334  0.50000000  0.33333334       0.000
   0.32978722  0.50000000  0.32978722       0.000
   0.32624114  0.50000000  0.32624114       0.000
   0.32269502  0.50000000  0.32269502       0.000
   0.31914896  0.50000000  0.31914896       0.000
   0.31560284  0.50000000  0.31560284       0.000
   0.31205675  0.50000000  0.31205675       0.000
   0.30851063  0.50000000  0.30851063       0.000
   0.30496454  0.50000000  0.30496454       0.000
   0.30141842  0.50000000  0.30141842       0.000
   0.29787236  0.50000000  0.29787236       0.000
   0.29432625  0.50000000  0.29432625       0.000
   0.29078016  0.50000000  0.29078016       0.000
   0.28723404  0.50000000  0.28723404       0.000
   0.28368795  0.50000000  0.28368795       0.000
   0.28014183  0.50000000  0.28014183       0.000
[...]
 k-point ** :   0.4326 0.5000 0.4326  plane waves:    6272
 k-point ** :   0.4291 0.5000 0.4291  plane waves:    6276
 k-point ** :   0.4255 0.5000 0.4255  plane waves:    6276
 k-point ** :   0.4220 0.5000 0.4220  plane waves:    6280
 k-point ** :   0.4184 0.5000 0.4184  plane waves:    6280
 k-point ** :   0.4149 0.5000 0.4149  plane waves:    6278
 k-point ** :   0.4113 0.5000 0.4113  plane waves:    6276
 k-point ** :   0.4078 0.5000 0.4078  plane waves:    6272
 k-point ** :   0.4043 0.5000 0.4043  plane waves:    6272
 k-point ** :   0.4007 0.5000 0.4007  plane waves:    6272
 k-point ** :   0.3972 0.5000 0.3972  plane waves:    6270
 k-point ** :   0.3936 0.5000 0.3936  plane waves:    6272
 k-point ** :   0.3901 0.5000 0.3901  plane waves:    6274
 k-point ** :   0.3865 0.5000 0.3865  plane waves:    6276
 k-point ** :   0.3830 0.5000 0.3830  plane waves:    6274
 k-point ** :   0.3794 0.5000 0.3794  plane waves:    6277
 k-point ** :   0.3759 0.5000 0.3759  plane waves:    6284
 k-point ** :   0.3723 0.5000 0.3723  plane waves:    6292
 k-point ** :   0.3688 0.5000 0.3688  plane waves:    6292
 k-point ** :   0.3652 0.5000 0.3652  plane waves:    6300
 k-point ** :   0.3617 0.5000 0.3617  plane waves:    6294
 k-point ** :   0.3582 0.5000 0.3582  plane waves:    6294
 k-point ** :   0.3546 0.5000 0.3546  plane waves:    6294
 k-point ** :   0.3511 0.5000 0.3511  plane waves:    6296
 k-point ** :   0.3475 0.5000 0.3475  plane waves:    6298
 k-point ** :   0.3440 0.5000 0.3440  plane waves:    6294
 k-point ** :   0.3404 0.5000 0.3404  plane waves:    6298
 k-point ** :   0.3369 0.5000 0.3369  plane waves:    6300
 k-point ** :   0.3333 0.5000 0.3333  plane waves:    6300
 k-point ** :   0.3298 0.5000 0.3298  plane waves:    6298
 k-point ** :   0.3262 0.5000 0.3262  plane waves:    6298
 k-point ** :   0.3227 0.5000 0.3227  plane waves:    6294
 k-point ** :   0.3191 0.5000 0.3191  plane waves:    6296
 k-point ** :   0.3156 0.5000 0.3156  plane waves:    6294
 k-point ** :   0.3121 0.5000 0.3121  plane waves:    6294
 k-point ** :   0.3085 0.5000 0.3085  plane waves:    6300
 k-point ** :   0.3050 0.5000 0.3050  plane waves:    6302
 k-point ** :   0.3014 0.5000 0.3014  plane waves:    6306
 k-point ** :   0.2979 0.5000 0.2979  plane waves:    6302
 k-point ** :   0.2943 0.5000 0.2943  plane waves:    6302
 k-point ** :   0.2908 0.5000 0.2908  plane waves:    6304
 k-point ** :   0.2872 0.5000 0.2872  plane waves:    6308
 k-point ** :   0.2837 0.5000 0.2837  plane waves:    6308
 k-point ** :   0.2801 0.5000 0.2801  plane waves:    6309
 k-point ** :   0.2766 0.5000 0.2766  plane waves:    6306
 k-point ** :   0.2730 0.5000 0.2730  plane waves:    6306
 k-point ** :   0.2695 0.5000 0.2695  plane waves:    6304
 k-point ** :   0.2660 0.5000 0.2660  plane waves:    6304
 k-point ** :   0.2624 0.5000 0.2624  plane waves:    6302
 k-point ** :   0.2589 0.5000 0.2589  plane waves:    6304
 k-point ** :   0.2553 0.5000 0.2553  plane waves:    6308
 k-point ** :   0.2518 0.5000 0.2518  plane waves:    6310
 k-point ** :   0.2482 0.5000 0.2482  plane waves:    6310
 k-point ** :   0.2447 0.5000 0.2447  plane waves:    6308
 k-point ** :   0.2411 0.5000 0.2411  plane waves:    6310
 k-point ** :   0.2376 0.5000 0.2376  plane waves:    6310
 k-point ** :   0.2340 0.5000 0.2340  plane waves:    6310
 k-point ** :   0.2305 0.5000 0.2305  plane waves:    6309
 k-point ** :   0.2270 0.5000 0.2270  plane waves:    6306
 k-point ** :   0.2234 0.5000 0.2234  plane waves:    6306
 k-point ** :   0.2199 0.5000 0.2199  plane waves:    6304
 k-point ** :   0.2163 0.5000 0.2163  plane waves:    6304
 k-point ** :   0.2128 0.5000 0.2128  plane waves:    6300
 k-point ** :   0.2092 0.5000 0.2092  plane waves:    6298
 k-point ** :   0.2057 0.5000 0.2057  plane waves:    6298
 k-point ** :   0.2021 0.5000 0.2021  plane waves:    6296
 k-point ** :   0.1986 0.5000 0.1986  plane waves:    6298
 k-point ** :   0.1950 0.5000 0.1950  plane waves:    6298
 k-point ** :   0.1915 0.5000 0.1915  plane waves:    6299
 k-point ** :   0.1879 0.5000 0.1879  plane waves:    6300
 k-point ** :   0.1844 0.5000 0.1844  plane waves:    6302
 k-point ** :   0.1809 0.5000 0.1809  plane waves:    6304
 k-point ** :   0.1773 0.5000 0.1773  plane waves:    6308
 k-point ** :   0.1738 0.5000 0.1738  plane waves:    6308
 k-point ** :   0.1702 0.5000 0.1702  plane waves:    6308
 k-point ** :   0.1667 0.5000 0.1667  plane waves:    6305
 k-point ** :   0.1631 0.5000 0.1631  plane waves:    6306
 k-point ** :   0.1596 0.5000 0.1596  plane waves:    6308
 k-point ** :   0.1560 0.5000 0.1560  plane waves:    6308
 k-point ** :   0.1525 0.5000 0.1525  plane waves:    6307
 k-point ** :   0.1489 0.5000 0.1489  plane waves:    6310
 k-point ** :   0.1454 0.5000 0.1454  plane waves:    6310
 k-point ** :   0.1418 0.5000 0.1418  plane waves:    6312
 k-point ** :   0.1383 0.5000 0.1383  plane waves:    6316
 k-point ** :   0.1348 0.5000 0.1348  plane waves:    6322
 k-point ** :   0.1312 0.5000 0.1312  plane waves:    6320
 k-point ** :   0.1277 0.5000 0.1277  plane waves:    6318
 k-point ** :   0.1241 0.5000 0.1241  plane waves:    6324
 k-point ** :   0.1206 0.5000 0.1206  plane waves:    6321
 k-point ** :   0.1170 0.5000 0.1170  plane waves:    6322
 k-point ** :   0.1135 0.5000 0.1135  plane waves:    6324
 k-point ** :   0.1099 0.5000 0.1099  plane waves:    6322
 k-point ** :   0.1064 0.5000 0.1064  plane waves:    6320
 k-point ** :   0.1028 0.5000 0.1028  plane waves:    6326
 k-point ** :   0.0993 0.5000 0.0993  plane waves:    6326
 k-point ** :   0.0957 0.5000 0.0957  plane waves:    6330
 k-point ** :   0.0922 0.5000 0.0922  plane waves:    6330
 k-point ** :   0.0887 0.5000 0.0887  plane waves:    6334
 k-point ** :   0.0851 0.5000 0.0851  plane waves:    6334
 k-point ** :   0.0816 0.5000 0.0816  plane waves:    6333
 k-point ** :   0.0780 0.5000 0.0780  plane waves:    6332
 k-point ** :   0.0745 0.5000 0.0745  plane waves:    6336
 k-point ** :   0.0709 0.5000 0.0709  plane waves:    6336
 k-point ** :   0.0674 0.5000 0.0674  plane waves:    6336
 k-point ** :   0.0638 0.5000 0.0638  plane waves:    6338
 k-point ** :   0.0603 0.5000 0.0603  plane waves:    6338
 k-point ** :   0.0567 0.5000 0.0567  plane waves:    6338
 k-point ** :   0.0532 0.5000 0.0532  plane waves:    6345
 k-point ** :   0.0496 0.5000 0.0496  plane waves:    6350
 k-point ** :   0.0461 0.5000 0.0461  plane waves:    6346
 k-point ** :   0.0426 0.5000 0.0426  plane waves:    6349
 k-point ** :   0.0390 0.5000 0.0390  plane waves:    6350
 k-point ** :   0.0355 0.5000 0.0355  plane waves:    6352
 k-point ** :   0.0319 0.5000 0.0319  plane waves:    6354
 k-point ** :   0.0284 0.5000 0.0284  plane waves:    6356
 k-point ** :   0.0248 0.5000 0.0248  plane waves:    6360
 k-point ** :   0.0213 0.5000 0.0213  plane waves:    6360
 k-point ** :   0.0177 0.5000 0.0177  plane waves:    6366
 k-point ** :   0.0142 0.5000 0.0142  plane waves:    6364
 k-point ** :   0.0106 0.5000 0.0106  plane waves:    6362
 k-point ** :   0.0071 0.5000 0.0071  plane waves:    6366
 k-point ** :   0.0035 0.5000 0.0035  plane waves:    6362
 k-point ** :   0.0000 0.5000 0.0000  plane waves:    6358
 k-point ** :   0.0050 0.5000 0.0000  plane waves:    6362
 k-point ** :   0.0100 0.5000 0.0000  plane waves:    6358
 k-point ** :   0.0150 0.5000 0.0000  plane waves:    6358
 k-point ** :   0.0200 0.5000 0.0000  plane waves:    6360
 k-point ** :   0.0250 0.5000 0.0000  plane waves:    6360
 k-point ** :   0.0300 0.5000 0.0000  plane waves:    6360
 k-point ** :   0.0350 0.5000 0.0000  plane waves:    6362
 k-point ** :   0.0400 0.5000 0.0000  plane waves:    6354
 k-point ** :   0.0450 0.5000 0.0000  plane waves:    6354
 k-point ** :   0.0500 0.5000 0.0000  plane waves:    6350
 k-point ** :   0.0550 0.5000 0.0000  plane waves:    6346
 k-point ** :   0.0600 0.5000 0.0000  plane waves:    6344
 k-point ** :   0.0650 0.5000 0.0000  plane waves:    6344
 k-point ** :   0.0700 0.5000 0.0000  plane waves:    6342
 k-point ** :   0.0750 0.5000 0.0000  plane waves:    6348
 k-point ** :   0.0800 0.5000 0.0000  plane waves:    6345
 k-point ** :   0.0850 0.5000 0.0000  plane waves:    6344
 k-point ** :   0.0900 0.5000 0.0000  plane waves:    6340
 k-point ** :   0.0950 0.5000 0.0000  plane waves:    6338
 k-point ** :   0.1000 0.5000 0.0000  plane waves:    6340
 k-point ** :   0.1050 0.5000 0.0000  plane waves:    6337
 k-point ** :   0.1100 0.5000 0.0000  plane waves:    6332
 k-point ** :   0.1150 0.5000 0.0000  plane waves:    6330
 k-point ** :   0.1200 0.5000 0.0000  plane waves:    6330
 k-point ** :   0.1250 0.5000 0.0000  plane waves:    6330
 k-point ** :   0.1300 0.5000 0.0000  plane waves:    6328
 k-point ** :   0.1350 0.5000 0.0000  plane waves:    6332
 k-point ** :   0.1400 0.5000 0.0000  plane waves:    6324
 k-point ** :   0.1450 0.5000 0.0000  plane waves:    6324
 k-point ** :   0.1500 0.5000 0.0000  plane waves:    6326
 k-point ** :   0.1550 0.5000 0.0000  plane waves:    6320
 k-point ** :   0.1600 0.5000 0.0000  plane waves:    6318
 k-point ** :   0.1650 0.5000 0.0000  plane waves:    6316
 k-point ** :   0.1700 0.5000 0.0000  plane waves:    6318
 k-point ** :   0.1750 0.5000 0.0000  plane waves:    6318
 k-point ** :   0.1800 0.5000 0.0000  plane waves:    6314
 k-point ** :   0.1850 0.5000 0.0000  plane waves:    6310
 k-point ** :   0.1900 0.5000 0.0000  plane waves:    6310
 k-point ** :   0.1950 0.5000 0.0000  plane waves:    6306
 k-point ** :   0.2000 0.5000 0.0000  plane waves:    6310
 k-point ** :   0.2050 0.5000 0.0000  plane waves:    6306
 k-point ** :   0.2100 0.5000 0.0000  plane waves:    6304
 k-point ** :   0.2150 0.5000 0.0000  plane waves:    6300
 k-point ** :   0.2200 0.5000 0.0000  plane waves:    6304
 k-point ** :   0.2250 0.5000 0.0000  plane waves:    6304
 k-point ** :   0.2300 0.5000 0.0000  plane waves:    6304
 k-point ** :   0.2350 0.5000 0.0000  plane waves:    6304
 k-point ** :   0.2400 0.5000 0.0000  plane waves:    6306
 k-point ** :   0.2450 0.5000 0.0000  plane waves:    6308
 k-point ** :   0.2500 0.5000 0.0000  plane waves:    6306
 k-point ** :   0.2550 0.5000 0.0000  plane waves:    6300
 k-point ** :   0.2600 0.5000 0.0000  plane waves:    6302
 k-point ** :   0.2650 0.5000 0.0000  plane waves:    6300
 k-point ** :   0.2700 0.5000 0.0000  plane waves:    6300
 k-point ** :   0.2750 0.5000 0.0000  plane waves:    6300
 k-point ** :   0.2800 0.5000 0.0000  plane waves:    6302
 k-point ** :   0.2850 0.5000 0.0000  plane waves:    6300
 k-point ** :   0.2900 0.5000 0.0000  plane waves:    6302
 k-point ** :   0.2950 0.5000 0.0000  plane waves:    6300
 k-point ** :   0.3000 0.5000 0.0000  plane waves:    6300
 k-point ** :   0.3050 0.5000 0.0000  plane waves:    6302
 k-point ** :   0.3100 0.5000 0.0000  plane waves:    6304
 k-point ** :   0.3150 0.5000 0.0000  plane waves:    6302
 k-point ** :   0.3200 0.5000 0.0000  plane waves:    6294
 k-point ** :   0.3250 0.5000 0.0000  plane waves:    6296
 k-point ** :   0.3300 0.5000 0.0000  plane waves:    6298
 k-point ** :   0.3350 0.5000 0.0000  plane waves:    6298
 k-point ** :   0.3400 0.5000 0.0000  plane waves:    6297
 k-point ** :   0.3450 0.5000 0.0000  plane waves:    6296
 k-point ** :   0.3500 0.5000 0.0000  plane waves:    6296
 k-point ** :   0.3550 0.5000 0.0000  plane waves:    6296
 k-point ** :   0.3600 0.5000 0.0000  plane waves:    6296
 k-point ** :   0.3650 0.5000 0.0000  plane waves:    6297
 k-point ** :   0.3700 0.5000 0.0000  plane waves:    6292
 k-point ** :   0.3750 0.5000 0.0000  plane waves:    6292
 k-point ** :   0.3800 0.5000 0.0000  plane waves:    6294
 k-point ** :   0.3850 0.5000 0.0000  plane waves:    6297
 k-point ** :   0.3900 0.5000 0.0000  plane waves:    6291
 k-point ** :   0.3950 0.5000 0.0000  plane waves:    6294
 k-point ** :   0.4000 0.5000 0.0000  plane waves:    6294
 k-point ** :   0.4050 0.5000 0.0000  plane waves:    6292
 k-point ** :   0.4100 0.5000 0.0000  plane waves:    6292
 k-point ** :   0.4150 0.5000 0.0000  plane waves:    6288
 k-point ** :   0.4200 0.5000 0.0000  plane waves:    6286
 k-point ** :   0.4250 0.5000 0.0000  plane waves:    6288
 k-point ** :   0.4300 0.5000 0.0000  plane waves:    6286
 k-point ** :   0.4350 0.5000 0.0000  plane waves:    6285
 k-point ** :   0.4400 0.5000 0.0000  plane waves:    6282
 k-point ** :   0.4450 0.5000 0.0000  plane waves:    6279
 k-point ** :   0.4500 0.5000 0.0000  plane waves:    6276
 k-point ** :   0.4550 0.5000 0.0000  plane waves:    6278
 k-point ** :   0.4600 0.5000 0.0000  plane waves:    6278
 k-point ** :   0.4650 0.5000 0.0000  plane waves:    6278
 k-point ** :   0.4700 0.5000 0.0000  plane waves:    6278
 k-point ** :   0.4750 0.5000 0.0000  plane waves:    6278
 k-point ** :   0.4800 0.5000 0.0000  plane waves:    6276
 k-point ** :   0.4850 0.5000 0.0000  plane waves:    6278
 k-point ** :   0.4900 0.5000 0.0000  plane waves:    6273
 k-point ** :   0.4950 0.5000 0.0000  plane waves:    6270
 k-point ** :   0.5000 0.5000 0.0000  plane waves:    6272
 k-point ** :   0.5000 0.5000 0.0050  plane waves:    6274
 k-point ** :   0.5000 0.5000 0.0100  plane waves:    6276
 k-point ** :   0.5000 0.5000 0.0150  plane waves:    6278
 k-point ** :   0.5000 0.5000 0.0200  plane waves:    6280
 k-point ** :   0.5000 0.5000 0.0250  plane waves:    6281
 k-point ** :   0.5000 0.5000 0.0300  plane waves:    6282
 k-point ** :   0.5000 0.5000 0.0350  plane waves:    6280
 k-point ** :   0.5000 0.5000 0.0400  plane waves:    6280
 k-point ** :   0.5000 0.5000 0.0450  plane waves:    6278
 k-point ** :   0.5000 0.5000 0.0500  plane waves:    6280
 k-point ** :   0.5000 0.5000 0.0550  plane waves:    6276
 k-point ** :   0.5000 0.5000 0.0600  plane waves:    6280
 k-point ** :   0.5000 0.5000 0.0650  plane waves:    6280
 k-point ** :   0.5000 0.5000 0.0700  plane waves:    6288
 k-point ** :   0.5000 0.5000 0.0750  plane waves:    6290
 k-point ** :   0.5000 0.5000 0.0800  plane waves:    6290
 k-point ** :   0.5000 0.5000 0.0850  plane waves:    6292
 k-point ** :   0.5000 0.5000 0.0900  plane waves:    6292
 k-point ** :   0.5000 0.5000 0.0950  plane waves:    6290
 k-point ** :   0.5000 0.5000 0.1000  plane waves:    6292
 k-point ** :   0.5000 0.5000 0.1050  plane waves:    6296
 k-point ** :   0.5000 0.5000 0.1100  plane waves:    6298
 k-point ** :   0.5000 0.5000 0.1150  plane waves:    6300
 k-point ** :   0.5000 0.5000 0.1200  plane waves:    6298
 k-point ** :   0.5000 0.5000 0.1250  plane waves:    6298
 k-point ** :   0.5000 0.5000 0.1300  plane waves:    6294
 k-point ** :   0.5000 0.5000 0.1350  plane waves:    6296
 k-point ** :   0.5000 0.5000 0.1400  plane waves:    6298
 k-point ** :   0.5000 0.5000 0.1450  plane waves:    6300
 k-point ** :   0.5000 0.5000 0.1500  plane waves:    6302
 k-point ** :   0.5000 0.5000 0.1550  plane waves:    6302
 k-point ** :   0.5000 0.5000 0.1600  plane waves:    6300
 k-point ** :   0.5000 0.5000 0.1650  plane waves:    6300
 k-point ** :   0.5000 0.5000 0.1700  plane waves:    6300
 k-point ** :   0.5000 0.5000 0.1750  plane waves:    6300
 k-point ** :   0.5000 0.5000 0.1800  plane waves:    6302
 k-point ** :   0.5000 0.5000 0.1850  plane waves:    6306
 k-point ** :   0.5000 0.5000 0.1900  plane waves:    6304
 k-point ** :   0.5000 0.5000 0.1950  plane waves:    6307
 k-point ** :   0.5000 0.5000 0.2000  plane waves:    6304
 k-point ** :   0.5000 0.5000 0.2050  plane waves:    6306
 k-point ** :   0.5000 0.5000 0.2100  plane waves:    6305
 k-point ** :   0.5000 0.5000 0.2150  plane waves:    6306
 k-point ** :   0.5000 0.5000 0.2200  plane waves:    6306
 k-point ** :   0.5000 0.5000 0.2250  plane waves:    6306
 k-point ** :   0.5000 0.5000 0.2300  plane waves:    6302
 k-point ** :   0.5000 0.5000 0.2350  plane waves:    6304
 k-point ** :   0.5000 0.5000 0.2400  plane waves:    6301
 k-point ** :   0.5000 0.5000 0.2450  plane waves:    6300
 k-point ** :   0.5000 0.5000 0.2500  plane waves:    6302
 k-point ** :   0.5000 0.5000 0.2550  plane waves:    6300
 k-point ** :   0.5000 0.5000 0.2600  plane waves:    6304
 k-point ** :   0.5000 0.5000 0.2650  plane waves:    6304
 k-point ** :   0.5000 0.5000 0.2700  plane waves:    6301
 k-point ** :   0.5000 0.5000 0.2750  plane waves:    6300
 k-point ** :   0.5000 0.5000 0.2800  plane waves:    6300
 k-point ** :   0.5000 0.5000 0.2850  plane waves:    6300
 k-point ** :   0.5000 0.5000 0.2900  plane waves:    6296
 k-point ** :   0.5000 0.5000 0.2950  plane waves:    6294
 k-point ** :   0.5000 0.5000 0.3000  plane waves:    6289
 k-point ** :   0.5000 0.5000 0.3050  plane waves:    6290
 k-point ** :   0.5000 0.5000 0.3100  plane waves:    6288
 k-point ** :   0.5000 0.5000 0.3150  plane waves:    6289
 k-point ** :   0.5000 0.5000 0.3200  plane waves:    6286
 k-point ** :   0.5000 0.5000 0.3250  plane waves:    6284
 k-point ** :   0.5000 0.5000 0.3300  plane waves:    6280
 k-point ** :   0.5000 0.5000 0.3350  plane waves:    6278
 k-point ** :   0.5000 0.5000 0.3400  plane waves:    6282
 k-point ** :   0.5000 0.5000 0.3450  plane waves:    6288
 k-point ** :   0.5000 0.5000 0.3500  plane waves:    6290
 k-point ** :   0.5000 0.5000 0.3550  plane waves:    6286
 k-point ** :   0.5000 0.5000 0.3600  plane waves:    6289
 k-point ** :   0.5000 0.5000 0.3650  plane waves:    6290
 k-point ** :   0.5000 0.5000 0.3700  plane waves:    6288
 k-point ** :   0.5000 0.5000 0.3750  plane waves:    6280
 k-point ** :   0.5000 0.5000 0.3800  plane waves:    6275
 k-point ** :   0.5000 0.5000 0.3850  plane waves:    6274
 k-point ** :   0.5000 0.5000 0.3900  plane waves:    6276
 k-point ** :   0.5000 0.5000 0.3950  plane waves:    6272
 k-point ** :   0.5000 0.5000 0.4000  plane waves:    6276
 k-point ** :   0.5000 0.5000 0.4050  plane waves:    6274
 k-point ** :   0.5000 0.5000 0.4100  plane waves:    6272
 k-point ** :   0.5000 0.5000 0.4150  plane waves:    6271
 k-point ** :   0.5000 0.5000 0.4200  plane waves:    6272
 k-point ** :   0.5000 0.5000 0.4250  plane waves:    6272
 k-point ** :   0.5000 0.5000 0.4300  plane waves:    6274
 k-point ** :   0.5000 0.5000 0.4350  plane waves:    6268
 k-point ** :   0.5000 0.5000 0.4400  plane waves:    6264
 k-point ** :   0.5000 0.5000 0.4450  plane waves:    6264
 k-point ** :   0.5000 0.5000 0.4500  plane waves:    6262
 k-point ** :   0.5000 0.5000 0.4550  plane waves:    6266
 k-point ** :   0.5000 0.5000 0.4600  plane waves:    6263
 k-point ** :   0.5000 0.5000 0.4650  plane waves:    6260
 k-point ** :   0.5000 0.5000 0.4700  plane waves:    6260
 k-point ** :   0.5000 0.5000 0.4750  plane waves:    6262
 k-point ** :   0.5000 0.5000 0.4800  plane waves:    6264
 k-point ** :   0.5000 0.5000 0.4850  plane waves:    6268
 k-point ** :   0.5000 0.5000 0.4900  plane waves:    6268
 k-point ** :   0.5000 0.5000 0.4950  plane waves:    6272
 k-point ** :   0.5000 0.5000 0.5000  plane waves:    6272

 maximum and minimum number of plane-waves per node :      1077     1020

 maximum number of plane-waves:      6366
 maximum index in each direction: 
   IXMAX=   11   IYMAX=   11   IZMAX=   11
   IXMIN=  -11   IYMIN=  -11   IZMIN=  -11

 NGX is ok and might be reduce to  46
 NGY is ok and might be reduce to  46
 NGZ is ok and might be reduce to  46

 parallel 3D FFT for wavefunctions:
    minimum data exchange during FFTs selected (reduces bandwidth)
 parallel 3D FFT for charge:
    minimum data exchange during FFTs selected (reduces bandwidth)


 total amount of memory used by VASP on root node   665999. kBytes
========================================================================

   base      :      30000. kBytes
   nonl-proj :     486730. kBytes
   fftplans  :       1811. kBytes
   grid      :       3741. kBytes
   one-center:         31. kBytes
   wavefun   :     143686. kBytes
 
