  96  96   0   0
  0.2080188E+02  0.1257760E-08  0.1245754E-08  0.1274818E-08  0.5000000E-15
  1.000000000000000E-004
  CAR 
 MAPbI3-Cubic                            
      8.87131949    -19.56035294  301      1.40800548      1.00000000
    -19.560  0.0000E+00  0.0000E+00
    -19.466  0.0000E+00  0.0000E+00
    -19.371  0.0000E+00  0.0000E+00
    -19.276  0.0000E+00  0.0000E+00
    -19.181  0.0000E+00  0.0000E+00
    -19.086  0.0000E+00  0.0000E+00
    -18.992  0.0000E+00  0.0000E+00
    -18.897  0.0000E+00  0.0000E+00
    -18.802  0.0000E+00  0.0000E+00
    -18.707  0.0000E+00  0.0000E+00
    -18.613  0.0000E+00  0.0000E+00
    -18.518  0.0000E+00  0.0000E+00
    -18.423  0.0000E+00  0.0000E+00
    -18.328  0.0000E+00  0.0000E+00
    -18.234  0.0000E+00  0.1600E+02
    -18.139  0.0000E+00  0.1600E+02
    -18.044  0.0000E+00  0.1600E+02
    -17.949  0.0000E+00  0.1600E+02
    -17.854  0.0000E+00  0.1600E+02
    -17.760  0.0000E+00  0.1600E+02
    -17.665  0.0000E+00  0.1600E+02
    -17.570  0.0000E+00  0.1600E+02
    -17.475  0.0000E+00  0.1600E+02
    -17.381  0.0000E+00  0.1600E+02
    -17.286  0.0000E+00  0.1600E+02
    -17.191  0.0000E+00  0.1600E+02
    -17.096  0.0000E+00  0.1600E+02
    -17.002  0.0000E+00  0.1600E+02
    -16.907  0.0000E+00  0.1600E+02
    -16.812  0.0000E+00  0.1600E+02
    -16.717  0.0000E+00  0.1600E+02
    -16.622  0.0000E+00  0.1600E+02
    -16.528  0.0000E+00  0.1600E+02
    -16.433  0.0000E+00  0.1600E+02
    -16.338  0.0000E+00  0.1600E+02
    -16.243  0.0000E+00  0.1600E+02
    -16.149  0.0000E+00  0.1600E+02
    -16.054  0.0000E+00  0.1600E+02
    -15.959  0.0000E+00  0.1600E+02
    -15.864  0.0000E+00  0.1600E+02
    -15.769  0.0000E+00  0.1600E+02
    -15.675  0.0000E+00  0.1600E+02
    -15.580  0.0000E+00  0.1600E+02
    -15.485  0.0000E+00  0.1600E+02
    -15.390  0.0000E+00  0.1600E+02
    -15.296  0.0000E+00  0.1600E+02
    -15.201  0.0000E+00  0.1600E+02
    -15.106  0.0000E+00  0.1600E+02
    -15.011  0.1688E+03  0.9600E+02
    -14.917  0.0000E+00  0.9600E+02
    -14.822  0.0000E+00  0.9600E+02
    -14.727  0.0000E+00  0.9600E+02
    -14.632  0.0000E+00  0.9600E+02
    -14.537  0.0000E+00  0.9600E+02
    -14.443  0.0000E+00  0.9600E+02
    -14.348  0.0000E+00  0.9600E+02
    -14.253  0.0000E+00  0.9600E+02
    -14.158  0.0000E+00  0.9600E+02
    -14.064  0.0000E+00  0.9600E+02
    -13.969  0.0000E+00  0.9600E+02
    -13.874  0.0000E+00  0.9600E+02
    -13.779  0.0000E+00  0.9600E+02
    -13.684  0.0000E+00  0.9600E+02
    -13.590  0.0000E+00  0.9600E+02
    -13.495  0.0000E+00  0.9600E+02
    -13.400  0.0000E+00  0.9600E+02
    -13.305  0.0000E+00  0.9600E+02
    -13.211  0.0000E+00  0.9600E+02
    -13.116  0.0000E+00  0.9600E+02
    -13.021  0.0000E+00  0.9600E+02
    -12.926  0.0000E+00  0.9600E+02
    -12.832  0.0000E+00  0.9600E+02
    -12.737  0.0000E+00  0.9600E+02
    -12.642  0.0000E+00  0.9600E+02
    -12.547  0.0000E+00  0.9600E+02
    -12.452  0.0000E+00  0.9600E+02
    -12.358  0.0000E+00  0.9600E+02
    -12.263  0.0000E+00  0.9600E+02
    -12.168  0.0000E+00  0.9600E+02
    -12.073  0.0000E+00  0.9600E+02
    -11.979  0.0000E+00  0.9600E+02
    -11.884  0.0000E+00  0.9600E+02
    -11.789  0.0000E+00  0.9600E+02
    -11.694  0.0000E+00  0.9600E+02
    -11.599  0.0000E+00  0.9600E+02
    -11.505  0.0000E+00  0.9600E+02
    -11.410  0.0000E+00  0.9600E+02
    -11.315  0.0000E+00  0.1040E+03
    -11.220  0.0000E+00  0.1120E+03
    -11.126  0.0000E+00  0.1120E+03
    -11.031  0.0000E+00  0.1120E+03
    -10.936  0.0000E+00  0.1120E+03
    -10.841  0.2565E+00  0.1120E+03
    -10.747  0.1563E+01  0.1134E+03
    -10.652  0.1499E+01  0.1169E+03
    -10.557  0.5809E+01  0.1225E+03
    -10.462  0.0000E+00  0.1280E+03
    -10.367  0.3126E+01  0.1296E+03
    -10.273  0.8563E+01  0.1386E+03
    -10.178  0.4690E+01  0.1422E+03
    -10.083  0.1209E-01  0.1442E+03
     -9.988  0.4688E+01  0.1547E+03
     -9.894  0.4690E+01  0.1600E+03
     -9.799  0.0000E+00  0.1600E+03
     -9.704  0.0000E+00  0.1600E+03
     -9.609  0.0000E+00  0.1600E+03
     -9.514  0.0000E+00  0.1600E+03
     -9.420  0.0000E+00  0.1600E+03
     -9.325  0.0000E+00  0.1600E+03
     -9.230  0.0000E+00  0.1600E+03
     -9.135  0.0000E+00  0.1600E+03
     -9.041  0.0000E+00  0.1600E+03
     -8.946  0.0000E+00  0.1600E+03
     -8.851  0.0000E+00  0.1600E+03
     -8.756  0.0000E+00  0.1600E+03
     -8.662  0.0000E+00  0.1600E+03
     -8.567  0.0000E+00  0.1600E+03
     -8.472  0.0000E+00  0.1600E+03
     -8.377  0.0000E+00  0.1600E+03
     -8.282  0.0000E+00  0.1600E+03
     -8.188  0.0000E+00  0.1600E+03
     -8.093  0.0000E+00  0.1600E+03
     -7.998  0.0000E+00  0.1600E+03
     -7.903  0.0000E+00  0.1600E+03
     -7.809  0.0000E+00  0.1600E+03
     -7.714  0.0000E+00  0.1680E+03
     -7.619  0.0000E+00  0.1880E+03
     -7.524  0.0000E+00  0.1920E+03
     -7.430  0.0000E+00  0.1920E+03
     -7.335  0.0000E+00  0.1920E+03
     -7.240  0.0000E+00  0.1920E+03
     -7.145  0.0000E+00  0.1920E+03
     -7.050  0.7796E+00  0.1921E+03
     -6.956  0.0000E+00  0.1921E+03
     -6.861  0.0000E+00  0.1925E+03
     -6.766  0.0000E+00  0.1934E+03
     -6.671  0.4671E+01  0.1941E+03
     -6.577  0.0000E+00  0.1944E+03
     -6.482  0.7816E+00  0.1964E+03
     -6.387  0.4254E+01  0.1983E+03
     -6.292  0.4385E+01  0.1995E+03
     -6.197  0.0000E+00  0.2009E+03
     -6.103  0.1793E+00  0.2031E+03
     -6.008  0.1563E+01  0.2046E+03
     -5.913  0.6658E+00  0.2061E+03
     -5.818  0.1483E+02  0.2109E+03
     -5.724  0.0000E+00  0.2226E+03
     -5.629  0.0000E+00  0.2235E+03
     -5.534  0.0000E+00  0.2239E+03
     -5.439  0.0000E+00  0.2239E+03
     -5.345  0.0000E+00  0.2240E+03
     -5.250  0.0000E+00  0.2240E+03
     -5.155  0.0000E+00  0.2240E+03
     -5.060  0.0000E+00  0.2240E+03
     -4.965  0.0000E+00  0.2240E+03
     -4.871  0.0000E+00  0.2240E+03
     -4.776  0.0000E+00  0.2240E+03
     -4.681  0.0000E+00  0.2240E+03
     -4.586  0.0000E+00  0.2240E+03
     -4.492  0.0000E+00  0.2240E+03
     -4.397  0.0000E+00  0.2240E+03
     -4.302  0.0000E+00  0.2240E+03
     -4.207  0.0000E+00  0.2240E+03
     -4.112  0.0000E+00  0.2240E+03
     -4.018  0.0000E+00  0.2240E+03
     -3.923  0.0000E+00  0.2240E+03
     -3.828  0.0000E+00  0.2240E+03
     -3.733  0.0000E+00  0.2240E+03
     -3.639  0.0000E+00  0.2240E+03
     -3.544  0.2713E+02  0.2394E+03
     -3.449  0.0000E+00  0.2560E+03
     -3.354  0.0000E+00  0.2560E+03
     -3.260  0.0000E+00  0.2560E+03
     -3.165  0.0000E+00  0.2560E+03
     -3.070  0.0000E+00  0.2560E+03
     -2.975  0.0000E+00  0.2560E+03
     -2.880  0.0000E+00  0.2560E+03
     -2.786  0.0000E+00  0.2560E+03
     -2.691  0.0000E+00  0.2560E+03
     -2.596  0.0000E+00  0.2560E+03
     -2.501  0.0000E+00  0.2560E+03
     -2.407  0.0000E+00  0.2560E+03
     -2.312  0.0000E+00  0.2560E+03
     -2.217  0.0000E+00  0.2560E+03
     -2.122  0.2785E-11  0.2560E+03
     -2.027  0.4866E-11  0.2582E+03
     -1.933  0.1984E-04  0.2612E+03
     -1.838  0.4335E+00  0.2634E+03
     -1.743  0.3126E+01  0.2657E+03
     -1.648  0.3126E+01  0.2684E+03
     -1.554  0.9307E+01  0.2724E+03
     -1.459  0.6661E+01  0.2754E+03
     -1.364  0.3126E+01  0.2785E+03
     -1.269  0.0000E+00  0.2796E+03
     -1.175  0.0000E+00  0.2800E+03
     -1.080  0.0000E+00  0.2800E+03
     -0.985  0.1741E-02  0.2807E+03
     -0.890  0.7816E+01  0.2850E+03
     -0.795  0.6253E+01  0.2910E+03
     -0.701  0.3130E+01  0.2961E+03
     -0.606  0.8331E+01  0.3022E+03
     -0.511  0.7170E+01  0.3052E+03
     -0.416  0.4601E+01  0.3084E+03
     -0.322  0.3255E+01  0.3141E+03
     -0.227  0.1081E+02  0.3202E+03
     -0.132  0.4648E+01  0.3269E+03
     -0.037  0.1946E-02  0.3327E+03
      0.058  0.2459E+01  0.3388E+03
      0.152  0.4853E+01  0.3469E+03
      0.247  0.1082E+02  0.3557E+03
      0.342  0.1617E+02  0.3636E+03
      0.437  0.1682E+02  0.3704E+03
      0.531  0.6269E+01  0.3798E+03
      0.626  0.3613E+01  0.3860E+03
      0.721  0.7516E+01  0.3917E+03
      0.816  0.6251E+01  0.3960E+03
      0.910  0.0000E+00  0.3975E+03
      1.005  0.1563E+01  0.3988E+03
      1.100  0.0000E+00  0.3993E+03
      1.195  0.1563E+01  0.3998E+03
      1.290  0.0000E+00  0.3999E+03
      1.384  0.7816E+00  0.4000E+03
      1.479  0.0000E+00  0.4000E+03
      1.574  0.0000E+00  0.4000E+03
      1.669  0.0000E+00  0.4000E+03
      1.763  0.0000E+00  0.4000E+03
      1.858  0.0000E+00  0.4000E+03
      1.953  0.0000E+00  0.4000E+03
      2.048  0.0000E+00  0.4000E+03
      2.142  0.0000E+00  0.4000E+03
      2.237  0.0000E+00  0.4000E+03
      2.332  0.0000E+00  0.4000E+03
      2.427  0.0000E+00  0.4000E+03
      2.522  0.0000E+00  0.4000E+03
      2.616  0.0000E+00  0.4000E+03
      2.711  0.0000E+00  0.4000E+03
      2.806  0.0000E+00  0.4000E+03
      2.901  0.0000E+00  0.4000E+03
      2.995  0.1563E+01  0.4002E+03
      3.090  0.0000E+00  0.4007E+03
      3.185  0.9343E-02  0.4012E+03
      3.280  0.0000E+00  0.4029E+03
      3.375  0.0000E+00  0.4036E+03
      3.469  0.0000E+00  0.4056E+03
      3.564  0.1563E+01  0.4066E+03
      3.659  0.0000E+00  0.4077E+03
      3.754  0.1563E+01  0.4083E+03
      3.848  0.0000E+00  0.4090E+03
      3.943  0.4240E-02  0.4096E+03
      4.038  0.0000E+00  0.4108E+03
      4.133  0.3372E+01  0.4132E+03
      4.227  0.0000E+00  0.4150E+03
      4.322  0.3126E+01  0.4169E+03
      4.417  0.3240E-04  0.4196E+03
      4.512  0.4592E+01  0.4227E+03
      4.607  0.6393E-09  0.4236E+03
      4.701  0.0000E+00  0.4239E+03
      4.796  0.0000E+00  0.4240E+03
      4.891  0.0000E+00  0.4240E+03
      4.986  0.0000E+00  0.4240E+03
      5.080  0.0000E+00  0.4241E+03
      5.175  0.0000E+00  0.4245E+03
      5.270  0.3126E+01  0.4260E+03
      5.365  0.1551E-03  0.4277E+03
      5.460  0.6967E-05  0.4307E+03
      5.554  0.3800E+01  0.4347E+03
      5.649  0.1563E+01  0.4381E+03
      5.744  0.2761E+01  0.4398E+03
      5.839  0.8424E-11  0.4421E+03
      5.933  0.0000E+00  0.4450E+03
      6.028  0.1082E+02  0.4484E+03
      6.123  0.4270E+01  0.4516E+03
      6.218  0.8208E+01  0.4566E+03
      6.312  0.2380E-01  0.4599E+03
      6.407  0.1563E+01  0.4632E+03
      6.502  0.6234E+01  0.4683E+03
      6.597  0.3126E+01  0.4738E+03
      6.692  0.9990E+01  0.4780E+03
      6.786  0.6384E+00  0.4809E+03
      6.881  0.3126E+01  0.4847E+03
      6.976  0.4689E+01  0.4887E+03
      7.071  0.3234E+01  0.4919E+03
      7.165  0.5052E+01  0.4969E+03
      7.260  0.1565E+01  0.5005E+03
      7.355  0.0000E+00  0.5044E+03
      7.450  0.1912E+01  0.5088E+03
      7.545  0.0000E+00  0.5113E+03
      7.639  0.0000E+00  0.5120E+03
      7.734  0.0000E+00  0.5120E+03
      7.829  0.0000E+00  0.5120E+03
      7.924  0.0000E+00  0.5120E+03
      8.018  0.0000E+00  0.5120E+03
      8.113  0.0000E+00  0.5120E+03
      8.208  0.0000E+00  0.5120E+03
      8.303  0.0000E+00  0.5120E+03
      8.397  0.0000E+00  0.5120E+03
      8.492  0.0000E+00  0.5120E+03
      8.587  0.0000E+00  0.5120E+03
      8.682  0.0000E+00  0.5120E+03
      8.777  0.0000E+00  0.5120E+03
      8.871  0.0000E+00  0.5120E+03
