 vasp.5.4.1 24Jun15 (build Nov 25 2015 16:01:35) complex                        
  
 executed on         CrayXC-Intel date 2016.07.15  18:17:38
 running on   96 total cores
 distrk:  each k-point on   24 cores,    4 groups
 distr:  one band on NCORES_PER_BAND=   3 cores,    8 groups


--------------------------------------------------------------------------------------------------------


 INCAR:
 POTCAR:    PAW_PBE C 08Apr2002                   
 POTCAR:    PAW_PBE N 08Apr2002                   
 POTCAR:    PAW_PBE H 15Jun2001                   
 POTCAR:    PAW_PBE Pb_d 06Sep2000                
 POTCAR:    PAW_PBE I 08Apr2002                   

 ----------------------------------------------------------------------------- 
|                                                                             |
|           W    W    AA    RRRRR   N    N  II  N    N   GGGG   !!!           |
|           W    W   A  A   R    R  NN   N  II  NN   N  G    G  !!!           |
|           W    W  A    A  R    R  N N  N  II  N N  N  G       !!!           |
|           W WW W  AAAAAA  RRRRR   N  N N  II  N  N N  G  GGG   !            |
|           WW  WW  A    A  R   R   N   NN  II  N   NN  G    G                |
|           W    W  A    A  R    R  N    N  II  N    N   GGGG   !!!           |
|                                                                             |
|      For optimal performance we recommend to set                            |
|        NCORE= 4 - approx SQRT( number of cores)                             |
|      NCORE specifies how many cores store one orbital (NPAR=cpu/NCORE).     |
|      This setting can  greatly improve the performance of VASP for DFT.     |
|      The default, NPAR=number of cores might be grossly inefficient         |
|      on modern multi-core architectures or massively parallel machines.     |
|      Do your own testing !!!!                                               |
|      Unfortunately you need to use the default for GW and RPA calculations. |
|      (for HF NCORE is supported but not extensively tested yet)             |
|                                                                             |
 ----------------------------------------------------------------------------- 


 ----------------------------------------------------------------------------- 
|                                                                             |
|           W    W    AA    RRRRR   N    N  II  N    N   GGGG   !!!           |
|           W    W   A  A   R    R  NN   N  II  NN   N  G    G  !!!           |
|           W    W  A    A  R    R  N N  N  II  N N  N  G       !!!           |
|           W WW W  AAAAAA  RRRRR   N  N N  II  N  N N  G  GGG   !            |
|           WW  WW  A    A  R   R   N   NN  II  N   NN  G    G                |
|           W    W  A    A  R    R  N    N  II  N    N   GGGG   !!!           |
|                                                                             |
|      You have enabled k-point parallelism (KPAR>1).                         |
|      This developmental code was originally  written by Paul Kent at ORNL,  |
|      and carefully double checked in Vienna.                                |
|      GW as well as linear response parallelism added by Martijn Marsman     |
|      and Georg Kresse.                                                      |
|      Carefully verify results versus KPAR=1.                                |
|      Report problems to Paul Kent and Vienna.                               |
|                                                                             |
 ----------------------------------------------------------------------------- 

 POTCAR:    PAW_PBE C 08Apr2002                   
   VRHFIN =C: s2p2                                                              
   LEXCH  = PE                                                                  
   EATOM  =   147.1560 eV,   10.8157 Ry                                         
                                                                                
   TITEL  = PAW_PBE C 08Apr2002                                                 
   LULTRA =        F    use ultrasoft PP ?                                      
   IUNSCR =        1    unscreen: 0-lin 1-nonlin 2-no                           
   RPACOR =    1.200    partial core radius                                     
   POMASS =   12.011; ZVAL   =    4.000    mass and valenz                      
   RCORE  =    1.500    outmost cutoff radius                                   
   RWIGS  =    1.630; RWIGS  =    0.863    wigner-seitz radius (au A)           
   ENMAX  =  400.000; ENMIN  =  300.000 eV                                      
   ICORE  =        2    local potential                                         
   LCOR   =        T    correct aug charges                                     
   LPAW   =        T    paw PP                                                  
   EAUG   =  644.873                                                            
   DEXC   =    0.000                                                            
   RMAX   =    1.529    core radius for proj-oper                               
   RAUG   =    1.300    factor for augmentation sphere                          
   RDEP   =    1.501    radius for radial grids                                 
   RDEPT  =    1.300    core radius for aug-charge                              
                                                                                
   Atomic configuration                                                         
    4 entries                                                                   
     n  l   j            E        occ.                                          
     1  0  0.50      -273.3789   2.0000                                         
     2  0  0.50       -13.7508   2.0000                                         
     2  1  0.50        -5.2854   2.0000                                         
     3  2  1.50        -5.4423   0.0000                                         
   Description                                                                  
     l       E           TYP  RCUT    TYP  RCUT                                 
     0    -13.7508458     23  1.200                                             
     0     -8.2022199     23  1.200                                             
     1     -5.2854383     23  1.500                                             
     1     34.0145650     23  1.500                                             
     2     -5.4423304      7  1.500                                             
  local pseudopotential read in
  partial core-charges read in
  partial kinetic energy density read in
  atomic valenz-charges read in
  non local Contribution for L=           0  read in
    real space projection operators read in
  non local Contribution for L=           0  read in
    real space projection operators read in
  non local Contribution for L=           1  read in
    real space projection operators read in
  non local Contribution for L=           1  read in
    real space projection operators read in
    PAW grid and wavefunctions read in
 
   number of l-projection  operators is LMAX  =           4
   number of lm-projection operators is LMMAX =           8
 
 POTCAR:    PAW_PBE N 08Apr2002                   
   VRHFIN =N: s2p3                                                              
   LEXCH  = PE                                                                  
   EATOM  =   264.5486 eV,   19.4438 Ry                                         
                                                                                
   TITEL  = PAW_PBE N 08Apr2002                                                 
   LULTRA =        F    use ultrasoft PP ?                                      
   IUNSCR =        1    unscreen: 0-lin 1-nonlin 2-no                           
   RPACOR =    1.200    partial core radius                                     
   POMASS =   14.001; ZVAL   =    5.000    mass and valenz                      
   RCORE  =    1.500    outmost cutoff radius                                   
   RWIGS  =    1.400; RWIGS  =    0.741    wigner-seitz radius (au A)           
   ENMAX  =  400.000; ENMIN  =  300.000 eV                                      
   ICORE  =        2    local potential                                         
   LCOR   =        T    correct aug charges                                     
   LPAW   =        T    paw PP                                                  
   EAUG   =  627.112                                                            
   DEXC   =    0.000                                                            
   RMAX   =    1.529    core radius for proj-oper                               
   RAUG   =    1.300    factor for augmentation sphere                          
   RDEP   =    1.514    radius for radial grids                                 
   RDEPT  =    1.338    core radius for aug-charge                              
                                                                                
   Atomic configuration                                                         
    4 entries                                                                   
     n  l   j            E        occ.                                          
     1  0  0.50      -384.7179   2.0000                                         
     2  0  0.50       -18.5828   2.0000                                         
     2  1  0.50        -7.0898   3.0000                                         
     3  2  1.50        -6.8029   0.0000                                         
   Description                                                                  
     l       E           TYP  RCUT    TYP  RCUT                                 
     0    -18.5828119     23  1.200                                             
     0    -13.5018863     23  1.200                                             
     1     -7.0897853     23  1.500                                             
     1      9.5240782     23  1.500                                             
     2     -6.8029130      7  1.500                                             
  local pseudopotential read in
  partial core-charges read in
  partial kinetic energy density read in
  atomic valenz-charges read in
  non local Contribution for L=           0  read in
    real space projection operators read in
  non local Contribution for L=           0  read in
    real space projection operators read in
  non local Contribution for L=           1  read in
    real space projection operators read in
  non local Contribution for L=           1  read in
    real space projection operators read in
    PAW grid and wavefunctions read in
 
   number of l-projection  operators is LMAX  =           4
   number of lm-projection operators is LMMAX =           8
 
 POTCAR:    PAW_PBE H 15Jun2001                   
   VRHFIN =H: ultrasoft test                                                    
   LEXCH  = PE                                                                  
   EATOM  =    12.4884 eV,    0.9179 Ry                                         
                                                                                
   TITEL  = PAW_PBE H 15Jun2001                                                 
   LULTRA =        F    use ultrasoft PP ?                                      
   IUNSCR =        0    unscreen: 0-lin 1-nonlin 2-no                           
   RPACOR =    0.000    partial core radius                                     
   POMASS =    1.000; ZVAL   =    1.000    mass and valenz                      
   RCORE  =    1.100    outmost cutoff radius                                   
   RWIGS  =    0.700; RWIGS  =    0.370    wigner-seitz radius (au A)           
   ENMAX  =  250.000; ENMIN  =  200.000 eV                                      
   RCLOC  =    0.701    cutoff for local pot                                    
   LCOR   =        T    correct aug charges                                     
   LPAW   =        T    paw PP                                                  
   EAUG   =  400.000                                                            
   RMAX   =    1.123    core radius for proj-oper                               
   RAUG   =    1.200    factor for augmentation sphere                          
   RDEP   =    1.112    radius for radial grids                                 
   RDEPT  =    0.926    core radius for aug-charge                              
                                                                                
   Atomic configuration                                                         
    2 entries                                                                   
     n  l   j            E        occ.                                          
     1  0  0.50        -6.4927   1.0000                                         
     2  1  0.50        -3.4015   0.0000                                         
   Description                                                                  
     l       E           TYP  RCUT    TYP  RCUT                                 
     0     -6.4927494     23  1.100                                             
     0      6.8029130     23  1.100                                             
     1     -4.0817478     23  1.100                                             
  local pseudopotential read in
  atomic valenz-charges read in
  non local Contribution for L=           0  read in
    real space projection operators read in
  non local Contribution for L=           0  read in
    real space projection operators read in
  non local Contribution for L=           1  read in
    real space projection operators read in
    PAW grid and wavefunctions read in
 
   number of l-projection  operators is LMAX  =           3
   number of lm-projection operators is LMMAX =           5
 
 POTCAR:    PAW_PBE Pb_d 06Sep2000                
   VRHFIN =Pb:                                                                  
   LEXCH  = PE                                                                  
   EATOM  =  1661.6185 eV,  122.1255 Ry                                         
                                                                                
   TITEL  = PAW_PBE Pb_d 06Sep2000                                              
   LULTRA =        F    use ultrasoft PP ?                                      
   IUNSCR =        1    unscreen: 0-lin 1-nonlin 2-no                           
   RPACOR =    2.200    partial core radius                                     
   POMASS =  207.200; ZVAL   =   14.000    mass and valenz                      
   RCORE  =    2.500    outmost cutoff radius                                   
   RWIGS  =    3.260; RWIGS  =    1.725    wigner-seitz radius (au A)           
   ENMAX  =  237.835; ENMIN  =  178.376 eV                                      
   ICORE  =        3    local potential                                         
   LCOR   =        T    correct aug charges                                     
   LPAW   =        T    paw PP                                                  
   EAUG   =  391.914                                                            
   DEXC   =    0.000                                                            
   RMAX   =    2.565    core radius for proj-oper                               
   RAUG   =    1.300    factor for augmentation sphere                          
   RDEP   =    2.643    radius for radial grids                                 
   RDEPT  =    2.092    core radius for aug-charge                              
                                                                                
   Atomic configuration                                                         
   16 entries                                                                   
     n  l   j            E        occ.                                          
     1  0  0.50    -88091.8466   2.0000                                         
     2  0  0.50    -15753.4197   2.0000                                         
     2  1  1.50    -13508.1797   6.0000                                         
     3  0  0.50     -3781.7194   2.0000                                         
     3  1  1.50     -3138.2529   6.0000                                         
     3  2  2.50     -2483.2977  10.0000                                         
     4  0  0.50      -856.2895   2.0000                                         
     4  1  1.50      -645.4942   6.0000                                         
     4  2  2.50      -401.8768  10.0000                                         
     4  3  3.50      -132.9059  14.0000                                         
     5  0  0.50      -144.0950   2.0000                                         
     5  1  1.50       -85.7879   6.0000                                         
     5  2  2.50       -21.1769  10.0000                                         
     6  0  0.50       -12.0372   2.0000                                         
     6  1  1.50        -3.4971   2.0000                                         
     5  3  2.50        -2.7212   0.0000                                         
   Description                                                                  
     l       E           TYP  RCUT    TYP  RCUT                                 
     2    -21.1768523     23  2.500                                             
     2      1.3605826     23  2.500                                             
     0    -12.0371562     23  2.500                                             
     0     13.6058260     23  2.500                                             
     1     -3.4971339     23  2.500                                             
     1     13.6058260     23  2.500                                             
     3     -1.3605826      7  2.500                                             
  local pseudopotential read in
  partial core-charges read in
  partial kinetic energy density read in
  atomic valenz-charges read in
  non local Contribution for L=           2  read in
    real space projection operators read in
  non local Contribution for L=           2  read in
    real space projection operators read in
  non local Contribution for L=           0  read in
    real space projection operators read in
  non local Contribution for L=           0  read in
    real space projection operators read in
  non local Contribution for L=           1  read in
    real space projection operators read in
  non local Contribution for L=           1  read in
    real space projection operators read in
    PAW grid and wavefunctions read in
 
   number of l-projection  operators is LMAX  =           6
   number of lm-projection operators is LMMAX =          18
 
 POTCAR:    PAW_PBE I 08Apr2002                   
   VRHFIN =I : s2p5                                                             
   LEXCH  = PE                                                                  
   EATOM  =   315.8678 eV,   23.2156 Ry                                         
                                                                                
   TITEL  = PAW_PBE I 08Apr2002                                                 
   LULTRA =        F    use ultrasoft PP ?                                      
   IUNSCR =        1    unscreen: 0-lin 1-nonlin 2-no                           
   RPACOR =    2.200    partial core radius                                     
   POMASS =  126.904; ZVAL   =    7.000    mass and valenz                      
   RCORE  =    2.300    outmost cutoff radius                                   
   RWIGS  =    2.810; RWIGS  =    1.487    wigner-seitz radius (au A)           
   ENMAX  =  175.647; ENMIN  =  131.735 eV                                      
   ICORE  =        3    local potential                                         
   LCOR   =        T    correct aug charges                                     
   LPAW   =        T    paw PP                                                  
   EAUG   =  370.139                                                            
   DEXC   =    0.000                                                            
   RMAX   =    2.359    core radius for proj-oper                               
   RAUG   =    1.300    factor for augmentation sphere                          
   RDEP   =    2.392    radius for radial grids                                 
   RDEPT  =    2.170    core radius for aug-charge                              
                                                                                
   Atomic configuration                                                         
   13 entries                                                                   
     n  l   j            E        occ.                                          
     1  0  0.50    -32976.3739   2.0000                                         
     2  0  0.50     -5094.5933   2.0000                                         
     2  1  1.50     -4572.0131   6.0000                                         
     3  0  0.50     -1028.2813   2.0000                                         
     3  1  1.50      -859.0250   6.0000                                         
     3  2  2.50      -605.7620  10.0000                                         
     4  0  0.50      -180.5540   2.0000                                         
     4  1  1.50      -127.5306   6.0000                                         
     4  2  2.50       -50.2720  10.0000                                         
     5  0  0.50       -17.4058   2.0000                                         
     5  1  0.50        -7.0851   5.0000                                         
     5  2  1.50        -7.0750   0.0000                                         
     4  3  2.50        -7.0750   0.0000                                         
   Description                                                                  
     l       E           TYP  RCUT    TYP  RCUT                                 
     0    -17.4058016     23  2.300                                             
     0    -18.7663842     23  2.300                                             
     1     -7.0850686     23  2.300                                             
     1     -4.2150896     23  2.300                                             
     2     -7.0750295     23  2.300                                             
     3     -1.3605826     23  2.300                                             
  local pseudopotential read in
  partial core-charges read in
  partial kinetic energy density read in
  atomic valenz-charges read in
  non local Contribution for L=           0  read in
    real space projection operators read in
  non local Contribution for L=           0  read in
    real space projection operators read in
  non local Contribution for L=           1  read in
    real space projection operators read in
  non local Contribution for L=           1  read in
    real space projection operators read in
  non local Contribution for L=           2  read in
    real space projection operators read in
    PAW grid and wavefunctions read in
 
   number of l-projection  operators is LMAX  =           5
   number of lm-projection operators is LMMAX =          13
 

 ----------------------------------------------------------------------------- 
|                                                                             |
|  ADVICE TO THIS USER RUNNING 'VASP/VAMP'   (HEAR YOUR MASTER'S VOICE ...):  |
|                                                                             |
|      You have a (more or less) 'large supercell' and for larger cells       |
|      it might be more efficient to use real space projection opertators     |
|      So try LREAL= Auto  in the INCAR   file.                               |
|      Mind: At the moment your POTCAR file does not contain real space       |
|       projectors, and has to be modified,  BUT if you                       |
|      want to do an extremely  accurate calculation you might also keep the  |
|      reciprocal projection scheme          (i.e. LREAL=.FALSE.)             |
|                                                                             |
 ----------------------------------------------------------------------------- 


 ----------------------------------------------------------------------------- 
|                                                                             |
|  ADVICE TO THIS USER RUNNING 'VASP/VAMP'   (HEAR YOUR MASTER'S VOICE ...):  |
|                                                                             |
|      You enforced a specific xc-type in the INCAR file,                     |
|      a different type was found on the POTCAR file                          |
|          I HOPE YOU KNOW, WHAT YOU ARE  DOING                               |
|                                                                             |
 ----------------------------------------------------------------------------- 

  PAW_PBE C 08Apr2002                   :
 energy of atom  1       EATOM= -147.1560
 kinetic energy error for atom=    0.0032 (will be added to EATOM!!)
  PAW_PBE N 08Apr2002                   :
 energy of atom  2       EATOM= -264.5486
 kinetic energy error for atom=    0.0061 (will be added to EATOM!!)
  PAW_PBE H 15Jun2001                   :
 energy of atom  3       EATOM=  -12.4884
 kinetic energy error for atom=    0.0002 (will be added to EATOM!!)
  PAW_PBE Pb_d 06Sep2000                :
 energy of atom  4       EATOM=-1661.6185
 kinetic energy error for atom=    0.0012 (will be added to EATOM!!)
  PAW_PBE I 08Apr2002                   :
 energy of atom  5       EATOM= -315.8678
 kinetic energy error for atom=    0.0003 (will be added to EATOM!!)
 
 
 POSCAR: C N H Pb I                              
  positions in direct lattice
  No initial velocities read in
 exchange correlation table for  LEXCH =       14
   RHO(1)=    0.500       N(1)  =     2000
   RHO(2)=  100.500       N(2)  =     4000
 


--------------------------------------------------------------------------------------------------------


 ion  position               nearest neighbor table
   1  0.201  0.250  0.222-  25 1.10  33 1.10  17 1.10   9 1.48
   2  0.693  0.250  0.236-  26 1.10  34 1.10  18 1.10  10 1.48
   3  0.193  0.750  0.236-  27 1.10  35 1.10  19 1.10  11 1.48
   4  0.701  0.750  0.222-  28 1.10  36 1.10  20 1.10  12 1.48
   5  0.201  0.250  0.722-  29 1.10  37 1.10  21 1.10  13 1.48
   6  0.693  0.250  0.736-  30 1.10  38 1.10  22 1.10  14 1.48
   7  0.193  0.750  0.736-  31 1.10  39 1.10  23 1.10  15 1.48
   8  0.701  0.750  0.722-  32 1.10  40 1.10  24 1.10  16 1.48
   9  0.306  0.250  0.274-  57 1.04  41 1.05  49 1.05   1 1.48
  10  0.803  0.250  0.273-  42 1.05  50 1.05  58 1.05   2 1.48
  11  0.303  0.750  0.273-  43 1.05  51 1.05  59 1.05   3 1.48
  12  0.806  0.750  0.274-  60 1.04  44 1.05  52 1.05   4 1.48
  13  0.306  0.250  0.774-  61 1.04  45 1.05  53 1.05   5 1.48
  14  0.803  0.250  0.773-  46 1.05  54 1.05  62 1.05   6 1.48
  15  0.303  0.750  0.773-  47 1.05  55 1.05  63 1.05   7 1.48
  16  0.806  0.750  0.774-  64 1.04  48 1.05  56 1.05   8 1.48
  17  0.216  0.250  0.136-   1 1.10
  18  0.695  0.250  0.149-   2 1.10
  19  0.195  0.750  0.149-   3 1.10
  20  0.716  0.750  0.136-   4 1.10
  21  0.216  0.250  0.636-   5 1.10
  22  0.695  0.250  0.649-   6 1.10
  23  0.195  0.750  0.649-   7 1.10
  24  0.716  0.750  0.636-   8 1.10
  25  0.157  0.322  0.246-   1 1.10
  26  0.652  0.322  0.265-   2 1.10
  27  0.152  0.822  0.265-   3 1.10
  28  0.657  0.822  0.246-   4 1.10
  29  0.157  0.322  0.746-   5 1.10
  30  0.652  0.322  0.765-   6 1.10
  31  0.152  0.822  0.765-   7 1.10
  32  0.657  0.822  0.746-   8 1.10
  33  0.157  0.177  0.246-   1 1.10
  34  0.652  0.177  0.265-   2 1.10
  35  0.152  0.677  0.265-   3 1.10
  36  0.657  0.677  0.246-   4 1.10
  37  0.157  0.177  0.746-   5 1.10
  38  0.652  0.177  0.765-   6 1.10
  39  0.152  0.677  0.765-   7 1.10
  40  0.657  0.677  0.746-   8 1.10
  41  0.351  0.318  0.254-   9 1.05
  42  0.845  0.318  0.247-  10 1.05
  43  0.345  0.818  0.247-  11 1.05
  44  0.851  0.818  0.254-  12 1.05
  45  0.351  0.318  0.754-  13 1.05
  46  0.845  0.318  0.747-  14 1.05
  47  0.345  0.818  0.747-  15 1.05
  48  0.851  0.818  0.754-  16 1.05
  49  0.351  0.182  0.254-   9 1.05
  50  0.846  0.182  0.248-  10 1.05
  51  0.346  0.682  0.248-  11 1.05
  52  0.851  0.682  0.254-  12 1.05
  53  0.351  0.182  0.754-  13 1.05
  54  0.846  0.182  0.748-  14 1.05
  55  0.346  0.682  0.748-  15 1.05
  56  0.851  0.682  0.754-  16 1.05
  57  0.298  0.250  0.356-   9 1.04
  58  0.808  0.250  0.355-  10 1.05
  59  0.308  0.750  0.355-  11 1.05
  60  0.798  0.750  0.356-  12 1.04
  61  0.298  0.250  0.856-  13 1.04
  62  0.808  0.250  0.855-  14 1.05
  63  0.308  0.750  0.855-  15 1.05
  64  0.798  0.750  0.856-  16 1.04
  65  0.472  0.501  0.489-  90 3.08  85 3.14  87 3.16  77 3.17  73 3.22  89 3.26
  66  0.972  0.499  0.489-  89 3.08  88 3.14  86 3.16  78 3.17  74 3.22  90 3.26
  67  0.472  0.999  0.489-  92 3.08  85 3.14  87 3.16  79 3.17  75 3.22  91 3.26
  68  0.972  0.001  0.489-  91 3.08  88 3.14  86 3.16  80 3.17  76 3.22  92 3.26
  69  0.472  0.501  0.989-  94 3.08  81 3.14  83 3.16  73 3.17  77 3.22  93 3.26
  70  0.972  0.499  0.989-  93 3.08  84 3.14  82 3.16  74 3.17  78 3.22  94 3.26
  71  0.472  0.999  0.989-  96 3.08  81 3.14  83 3.16  75 3.17  79 3.22  95 3.26
  72  0.972  0.001  0.989-  95 3.08  84 3.14  82 3.16  76 3.17  80 3.22  96 3.26
  73  0.455  0.500  0.238-  69 3.17  65 3.22
  74  0.955  0.500  0.238-  70 3.17  66 3.22
  75  0.455  1.000  0.238-  71 3.17  67 3.22
  76  0.955  0.000  0.238-  72 3.17  68 3.22
  77  0.455  0.500  0.738-  65 3.17  69 3.22
  78  0.955  0.500  0.738-  66 3.17  70 3.22
  79  0.455  1.000  0.738-  67 3.17  71 3.22
  80  0.955  0.000  0.738-  68 3.17  72 3.22
  81  0.464  0.250  0.009-  71 3.14  69 3.14
  82  0.936  0.250  0.014-  72 3.16  70 3.16
  83  0.436  0.750  0.014-  69 3.16  71 3.16
  84  0.964  0.750  0.009-  70 3.14  72 3.14
  85  0.464  0.250  0.509-  67 3.14  65 3.14
  86  0.936  0.250  0.514-  68 3.16  66 3.16
  87  0.436  0.750  0.514-  65 3.16  67 3.16
  88  0.964  0.750  0.509-  66 3.14  68 3.14
  89  0.216  0.483  0.461-  66 3.08  65 3.26
  90  0.716  0.517  0.461-  65 3.08  66 3.26
  91  0.216  0.017  0.461-  68 3.08  67 3.26
  92  0.716  0.983  0.461-  67 3.08  68 3.26
  93  0.216  0.483  0.961-  70 3.08  69 3.26
  94  0.716  0.517  0.961-  69 3.08  70 3.26
  95  0.216  0.017  0.961-  72 3.08  71 3.26
  96  0.716  0.983  0.961-  71 3.08  72 3.26
 
  LATTYP: Found a triclinic cell.
 ALAT       =    17.8238589327
 B/A-ratio  =     0.6989248630
 C/A-ratio  =     1.0156975818
 COS(alpha) =     0.0001355172
 COS(beta)  =     0.5146378593
 COS(gamma) =     0.6988877578
  
  Lattice vectors:
  
 A1 = (  -0.1406063366, -12.4576271275, -12.7466742118)
 A2 = (  -0.0011956322, -12.4575380825,   0.0007464135)
 A3 = ( -12.7162481321,  -0.0020049566, -12.8856194186)


Analysis of symmetry for initial positions (statically):
=====================================================================
 Subroutine PRICEL returns following result:
 
  LATTYP: Found a triclinic cell.
 ALAT       =     8.8502626515
 B/A-ratio  =     1.4075896561
 C/A-ratio  =     0.7202149489
 COS(alpha) =     0.0000518785
 COS(beta)  =     0.0156138721
 COS(gamma) =     0.7036188608
  
  Lattice vectors:
  
 A1 = (  -6.2878208978,   6.2278110854,  -0.0694726034)
 A2 = (   0.0011956322,  12.4575380825,  -0.0007464135)
 A3 = (  -0.0697053522,  -0.0000445225,  -6.3737103126)
 
   4 primitive cells build up your supercell.
 

 Routine SETGRP: Setting up the symmetry group for a 
 triclinic supercell.


 Subroutine GETGRP returns: Found  1 space group operations
 (whereof  1 operations were pure point group operations)
 out of a pool of  2 trial point group operations.


The static configuration has the point symmetry C_1 .


Analysis of symmetry for dynamics (positions and initial velocities):
=====================================================================
 Subroutine PRICEL returns following result:
 
  LATTYP: Found a triclinic cell.
 ALAT       =     8.8502626515
 B/A-ratio  =     1.4075896561
 C/A-ratio  =     0.7202149489
 COS(alpha) =     0.0000518785
 COS(beta)  =     0.0156138721
 COS(gamma) =     0.7036188608
  
  Lattice vectors:
  
 A1 = (  -6.2878208978,   6.2278110854,  -0.0694726034)
 A2 = (   0.0011956322,  12.4575380825,  -0.0007464135)
 A3 = (  -0.0697053522,  -0.0000445225,  -6.3737103126)
 
   4 primitive cells build up your supercell.
 

 Routine SETGRP: Setting up the symmetry group for a 
 triclinic supercell.


 Subroutine GETGRP returns: Found  1 space group operations
 (whereof  1 operations were pure point group operations)
 out of a pool of  2 trial point group operations.


The dynamic configuration has the point symmetry C_1 .


 Subroutine INISYM returns: Found  1 space group operations
 (whereof  1 operations are pure point group operations),
 and found     4 'primitive' translations

 
 
 KPOINTS: Automatic 3x3x3                         

Automatic generation of k-mesh.
Space group operators:
 irot       det(A)        alpha          n_x          n_y          n_z        tau_x        tau_y        tau_z
    1     1.000000     0.000000     1.000000     0.000000     0.000000     0.000000     0.000000     0.000000
 
 Subroutine IBZKPT returns following result:
 ===========================================
 
 Found     14 irreducible k-points:
 
 Following reciprocal coordinates:
            Coordinates               Weight
  0.000000  0.000000  0.000000      1.000000
  0.333333 -0.000000 -0.000000      2.000000
  0.000000  0.333333 -0.000000      2.000000
  0.333333  0.333333  0.000000      2.000000
 -0.333333  0.333333  0.000000      2.000000
  0.000000  0.000000  0.333333      2.000000
  0.333333  0.000000  0.333333      2.000000
 -0.333333  0.000000  0.333333      2.000000
  0.000000  0.333333  0.333333      2.000000
  0.333333  0.333333  0.333333      2.000000
 -0.333333  0.333333  0.333333      2.000000
  0.000000 -0.333333  0.333333      2.000000
  0.333333 -0.333333  0.333333      2.000000
 -0.333333 -0.333333  0.333333      2.000000
 
 Following cartesian coordinates:
            Coordinates               Weight
  0.000000  0.000000  0.000000      1.000000
  0.026507 -0.000003 -0.000290      2.000000
 -0.000004  0.026758 -0.000000      2.000000
  0.026503  0.026755 -0.000290      2.000000
 -0.026511  0.026760  0.000290      2.000000
 -0.000287  0.000002  0.026152      2.000000
  0.026220 -0.000001  0.025862      2.000000
 -0.026794  0.000004  0.026442      2.000000
 -0.000291  0.026759  0.026152      2.000000
  0.026215  0.026757  0.025862      2.000000
 -0.026798  0.026762  0.026442      2.000000
 -0.000283 -0.026756  0.026152      2.000000
  0.026224 -0.026759  0.025862      2.000000
 -0.026790 -0.026753  0.026442      2.000000
 


--------------------------------------------------------------------------------------------------------




 Dimension of arrays:
   k-points           NKPTS =     14   k-points in BZ     NKDIM =     14   number of bands    NBANDS=    256
   number of dos      NEDOS =    301   number of ions     NIONS =     96
   non local maximal  LDIM  =      6   non local SUM 2l+1 LMDIM =     18
   total plane-waves  NPLWV = ******
   max r-space proj   IRMAX =      1   max aug-charges    IRDMAX= 314103
   dimension x,y,z NGX =   112 NGY =  108 NGZ =  112
   dimension x,y,z NGXF=   224 NGYF=  216 NGZF=  224
   support grid    NGXF=   448 NGYF=  432 NGZF=  448
   ions per type =               8   8  48   8  24
 NGX,Y,Z   is equivalent  to a cutoff of  14.80, 14.41, 14.61 a.u.
 NGXF,Y,Z  is equivalent  to a cutoff of  29.61, 28.83, 29.21 a.u.


 I would recommend the setting:
   dimension x,y,z NGX =   109 NGY =  107 NGZ =  110
 SYSTEM =  MAPbI3-Cubic                            
 POSCAR =  C N H Pb I                              

 Startparameter for this run:
   NWRITE =      2    write-flag & timer
   PREC   = accura    normal or accurate (medium, high low for compatibility)
   ISTART =      0    job   : 0-new  1-cont  2-samecut
   ICHARG =      2    charge: 1-file 2-atom 10-const
   ISPIN  =      1    spin polarized calculation?
   LNONCOLLINEAR =      F non collinear calculations
   LSORBIT =      F    spin-orbit coupling
   INIWAV =      1    electr: 0-lowe 1-rand  2-diag
   LASPH  =      F    aspherical Exc in radial PAW
   METAGGA=      F    non-selfconsistent MetaGGA calc.

 Electronic Relaxation 1
   ENCUT  =  700.0 eV  51.45 Ry    7.17 a.u.  27.13 26.87 27.50*2*pi/ulx,y,z
   ENINI  =  700.0     initial cutoff
   ENAUG  =  644.9 eV  augmentation charge cutoff
   NELM   =     60;   NELMIN=  2; NELMDL= -5     # of ELM steps 
   EDIFF  = 0.1E-09   stopping-criterion for ELM
   LREAL  =      F    real-space projection
   NLSPLINE    = F    spline interpolate recip. space projectors
   LCOMPAT=      F    compatible to vasp.4.4
   GGA_COMPAT  = T    GGA compatible to vasp.4.4-vasp.4.6
   LMAXPAW     = -100 max onsite density
   LMAXMIX     =    2 max onsite mixed and CHGCAR
   VOSKOWN=      0    Vosko Wilk Nusair interpolation
   ROPT   =    0.00000   0.00000   0.00000   0.00000
   ROPT   =    0.00000
 Ionic relaxation
   EDIFFG = 0.1E-08   stopping-criterion for IOM
   NSW    =      0    number of steps for IOM
   NBLOCK =      1;   KBLOCK =      1    inner block; outer block 
   IBRION =     -1    ionic relax: 0-MD 1-quasi-New 2-CG
   NFREE  =      0    steps in history (QN), initial steepest desc. (CG)
   ISIF   =      2    stress and relaxation
   IWAVPR =     10    prediction:  0-non 1-charg 2-wave 3-comb
   ISYM   =      2    0-nonsym 1-usesym 2-fastsym
   LCORR  =      T    Harris-Foulkes like correction to forces

   POTIM  = 0.5000    time-step for ionic-motion
   TEIN   =    0.0    initial temperature
   TEBEG  =    0.0;   TEEND  =   0.0 temperature during run
   SMASS  =  -3.00    Nose mass-parameter (am)
   estimated Nose-frequenzy (Omega)   =  0.10E-29 period in steps =****** mass=  -0.362E-26a.u.
   SCALEE = 1.0000    scale energy and forces
   NPACO  =    256;   APACO  = 16.0  distance and # of slots for P.C.
   PSTRESS=    0.0 pullay stress

  Mass of Ions in am
   POMASS =  12.01 14.00  1.00207.20126.90
  Ionic Valenz
   ZVAL   =   4.00  5.00  1.00 14.00  7.00
  Atomic Wigner-Seitz radii
   RWIGS  =  -1.00 -1.00 -1.00 -1.00 -1.00
  virtual crystal weights 
   VCA    =   1.00  1.00  1.00  1.00  1.00
   NELECT =     400.0000    total number of electrons
   NUPDOWN=      -1.0000    fix difference up-down

 DOS related values:
   EMIN   =  10.00;   EMAX   =-10.00  energy-range for DOS
   EFERMI =   0.00
   ISMEAR =     0;   SIGMA  =   0.00  broadening in eV -4-tet -1-fermi 0-gaus

 Electronic relaxation 2 (details)
   IALGO  =     38    algorithm
   LDIAG  =      T    sub-space diagonalisation (order eigenvalues)
   LSUBROT=      F    optimize rotation matrix (better conditioning)
   TURBO    =      0    0=normal 1=particle mesh
   IRESTART =      0    0=no restart 2=restart with 2 vectors
   NREBOOT  =      0    no. of reboots
   NMIN     =      0    reboot dimension
   EREF     =   0.00    reference energy to select bands
   IMIX   =      4    mixing-type and parameters
     AMIX     =   0.40;   BMIX     =  1.00
     AMIX_MAG =   1.60;   BMIX_MAG =  1.00
     AMIN     =   0.10
     WC   =   100.;   INIMIX=   1;  MIXPRE=   1;  MAXMIX= -45

 Intra band minimization:
   WEIMIN = 0.0000     energy-eigenvalue tresh-hold
   EBREAK =  0.98E-13  absolut break condition
   DEPER  =   0.30     relativ break condition  

   TIME   =   0.40     timestep for ELM

  volume/ion in A,a.u.               =      20.80       140.38
  Fermi-wavevector in a.u.,A,eV,Ry     =   0.957863  1.810099 12.483376  0.917502
  Thomas-Fermi vector in A             =   2.086919
 
 Write flags
   LWAVE  =      F    write WAVECAR
   LCHARG =      F    write CHGCAR
   LVTOT  =      F    write LOCPOT, total local potential
   LVHAR  =      F    write LOCPOT, Hartree potential only
   LELF   =      F    write electronic localiz. function (ELF)
   LORBIT =      0    0 simple, 1 ext, 2 COOP (PROOUT)


 Dipole corrections
   LMONO  =      F    monopole corrections only (constant potential shift)
   LDIPOL =      F    correct potential (dipole corrections)
   IDIPOL =      0    1-x, 2-y, 3-z, 4-all directions 
   EPSILON=  1.0000000 bulk dielectric constant

 Core level calculations are selected ICORELEVEL =  1
 Exchange correlation treatment:
   GGA     =    PS    GGA type
   LEXCH   =    14    internal setting for exchange type
   VOSKOWN=      0    Vosko Wilk Nusair interpolation
   LHFCALC =     F    Hartree Fock is set to
   LHFONE  =     F    Hartree Fock one center treatment
   AEXX    =    0.0000 exact exchange contribution

 Linear response parameters
   LEPSILON=     F    determine dielectric tensor
   LRPA    =     F    only Hartree local field effects (RPA)
   LNABLA  =     F    use nabla operator in PAW spheres
   LVEL    =     F    velocity operator in full k-point grid
   LINTERFAST=   F  fast interpolation
   KINTER  =     0    interpolate to denser k-point grid
   CSHIFT  =0.1000    complex shift for real part using Kramers Kronig
   OMEGAMAX=  -1.0    maximum frequency
   DEG_THRESHOLD= 0.2000000E-02 threshold for treating states as degnerate
   RTIME   =    0.100 relaxation time in fs

 Orbital magnetization related:
   ORBITALMAG=     F  switch on orbital magnetization
   LCHIMAG   =     F  perturbation theory with respect to B field
   DQ        =  0.001000  dq finite difference perturbation B field



--------------------------------------------------------------------------------------------------------


 Static calculation
 charge density and potential will be updated during run
 non-spin polarized calculation
 Variant of blocked Davidson
 Davidson routine will perform the subspace rotation
 perform sub-space diagonalisation
    after iterative eigenvector-optimisation
 modified Broyden-mixing scheme, WC =      100.0
 initial mixing is a Kerker type mixing with AMIX =  0.4000 and BMIX =      1.0000
 Hartree-type preconditioning will be used
 using additional bands           56
 reciprocal scheme for non local part
 use partial core corrections
 calculate Harris-corrections to forces 
   (improved forces if not selfconsistent)
 use gradient corrections 
 use of overlap-Matrix (Vanderbilt PP)
 Gauss-broadening in eV      SIGMA  =   0.00


--------------------------------------------------------------------------------------------------------


  energy-cutoff  :      700.00
  volume of cell :     1996.98
      direct lattice vectors                 reciprocal lattice vectors
    12.576837428  0.001915912  0.138198793     0.079520802 -0.000007684 -0.000869670
     0.001195632 12.457538083 -0.000746413    -0.000012224  0.080272684 -0.000000427
     0.139410704  0.000089045 12.747420625    -0.000862111  0.000004784  0.078456671

  length of vectors
    12.577596840 12.457538162 12.748182927     0.079525558  0.080272685  0.078461408


 
 k-points in units of 2pi/SCALE and weight: Automatic 3x3x3                         
   0.00000000  0.00000000  0.00000000       0.037
   0.02650693 -0.00000256 -0.00028989       0.074
  -0.00000407  0.02675756 -0.00000014       0.074
   0.02650286  0.02675500 -0.00029003       0.074
  -0.02651101  0.02676012  0.00028975       0.074
  -0.00028737  0.00000159  0.02615222       0.074
   0.02621956 -0.00000097  0.02586233       0.074
  -0.02679430  0.00000416  0.02644211       0.074
  -0.00029144  0.02675916  0.02615208       0.074
   0.02621549  0.02675659  0.02586219       0.074
  -0.02679838  0.02676172  0.02644197       0.074
  -0.00028330 -0.02675597  0.02615237       0.074
   0.02622364 -0.02675853  0.02586248       0.074
  -0.02679023 -0.02675341  0.02644226       0.074
 
 k-points in reciprocal lattice and weights: Automatic 3x3x3                         
   0.00000000  0.00000000  0.00000000       0.037
   0.33333333 -0.00000000 -0.00000000       0.074
   0.00000000  0.33333333 -0.00000000       0.074
   0.33333333  0.33333333  0.00000000       0.074
  -0.33333333  0.33333333  0.00000000       0.074
   0.00000000  0.00000000  0.33333333       0.074
   0.33333333  0.00000000  0.33333333       0.074
  -0.33333333  0.00000000  0.33333333       0.074
   0.00000000  0.33333333  0.33333333       0.074
   0.33333333  0.33333333  0.33333333       0.074
  -0.33333333  0.33333333  0.33333333       0.074
   0.00000000 -0.33333333  0.33333333       0.074
   0.33333333 -0.33333333  0.33333333       0.074
  -0.33333333 -0.33333333  0.33333333       0.074
 
 position of ions in fractional coordinates (direct lattice) 
   0.20145462  0.24992687  0.22196826
   0.69253365  0.24988968  0.23586245
   0.19253365  0.74988968  0.23586245
   0.70145462  0.74992687  0.22196826
   0.20145462  0.24992687  0.72196826
   0.69253365  0.24988968  0.73586245
   0.19253365  0.74988968  0.73586245
   0.70145462  0.74992687  0.72196826
   0.30576470  0.25001775  0.27427725
   0.80330973  0.24998953  0.27349135
   0.30330973  0.74998953  0.27349135
   0.80576470  0.75001775  0.27427725
   0.30576470  0.25001775  0.77427725
   0.80330973  0.24998953  0.77349135
   0.30330973  0.74998953  0.77349135
   0.80576470  0.75001775  0.77427725
   0.21557067  0.24982051  0.13636359
   0.69457966  0.24982169  0.14941367
   0.19457966  0.74982169  0.14941367
   0.71557067  0.74982051  0.13636359
   0.21557067  0.24982051  0.63636359
   0.69457966  0.24982169  0.64941367
   0.19457966  0.74982169  0.64941367
   0.71557067  0.74982051  0.63636359
   0.15712576  0.32242158  0.24578167
   0.65154985  0.32228280  0.26524897
   0.15154985  0.82228280  0.26524897
   0.65712576  0.82242158  0.24578167
   0.15712576  0.32242158  0.74578167
   0.65154985  0.32228280  0.76524897
   0.15154985  0.82228280  0.76524897
   0.65712576  0.82242158  0.74578167
   0.15720247  0.17746542  0.24594995
   0.65168320  0.17748673  0.26535146
   0.15168320  0.67748673  0.26535146
   0.65720247  0.67746542  0.24594995
   0.15720247  0.17746542  0.74594995
   0.65168320  0.17748673  0.76535146
   0.15168320  0.67748673  0.76535146
   0.65720247  0.67746542  0.74594995
   0.35077440  0.31802304  0.25407298
   0.84549475  0.31772552  0.24744000
   0.34549475  0.81772552  0.24744000
   0.85077440  0.81802304  0.25407298
   0.35077440  0.31802304  0.75407298
   0.84549475  0.31772552  0.74744000
   0.34549475  0.81772552  0.74744000
   0.85077440  0.81802304  0.75407298
   0.35081762  0.18196252  0.25424169
   0.84559298  0.18224725  0.24754011
   0.34559298  0.68224725  0.24754011
   0.85081762  0.68196252  0.25424169
   0.35081762  0.18196252  0.75424169
   0.84559298  0.18224725  0.74754011
   0.34559298  0.68224725  0.74754011
   0.85081762  0.68196252  0.75424169
   0.29816098  0.25013208  0.35580797
   0.80817916  0.25005496  0.35541052
   0.30817916  0.75005496  0.35541052
   0.79816098  0.75013208  0.35580797
   0.29816098  0.25013208  0.85580797
   0.80817916  0.25005496  0.85541052
   0.30817916  0.75005496  0.85541052
   0.79816098  0.75013208  0.85580797
   0.47244569  0.50071715  0.48881048
   0.97243787  0.49926244  0.48881242
   0.47243787  0.99926244  0.48881242
   0.97244569  0.00071715  0.48881048
   0.47244569  0.50071715  0.98881048
   0.97243787  0.49926244  0.98881242
   0.47243787  0.99926244  0.98881242
   0.97244569  0.00071715  0.98881048
   0.45475451  0.50037834  0.23757044
   0.95473284  0.49960376  0.23757505
   0.45473284  0.99960376  0.23757505
   0.95475451  0.00037834  0.23757044
   0.45475451  0.50037834  0.73757044
   0.95473284  0.49960376  0.73757505
   0.45473284  0.99960376  0.73757505
   0.95475451  0.00037834  0.73757044
   0.46364666  0.24997624  0.00919919
   0.93562422  0.24998178  0.01446525
   0.43562422  0.74998178  0.01446525
   0.96364666  0.74997624  0.00919919
   0.46364666  0.24997624  0.50919919
   0.93562422  0.24998178  0.51446525
   0.43562422  0.74998178  0.51446525
   0.96364666  0.74997624  0.50919919
   0.21617482  0.48327411  0.46123970
   0.71616806  0.51672076  0.46123970
   0.21616806  0.01672076  0.46123970
   0.71617482  0.98327411  0.46123970
   0.21617482  0.48327411  0.96123970
   0.71616806  0.51672076  0.96123970
   0.21616806  0.01672076  0.96123970
   0.71617482  0.98327411  0.96123970
 
 position of ions in cartesian coordinates  (Angst):
   2.56490553  3.11387929  2.85717699
   8.74306364  3.11435799  3.10215866
   2.45524274  9.34216907  3.03268606
   8.85392206  9.34360629  2.92590318
   2.63461088  3.11392381  9.23088730
   8.81276899  3.11440251  9.47586897
   2.52494809  9.34221359  9.40639637
   8.92362741  9.34365081  9.29961349
   3.88408907  3.11521590  3.53839714
  10.14152246  3.11581751  3.59713906
   3.85370156  9.34362860  3.52766646
  10.17310560  9.34494290  3.60712333
   3.95379442  3.11526042  9.91210745
  10.21122781  3.11586203  9.97084937
   3.92340691  9.34367312  9.90137677
  10.24281095  9.34498742  9.98083364
   2.73050655  3.11257361  1.76788913
   8.75674403  3.11350725  2.00044245
   2.46892314  9.34131833  1.93096984
   9.01952308  9.34230061  1.83661532
   2.80021191  3.11261813  8.14159944
   8.82644939  3.11355177  8.37415276
   2.53862849  9.34136285  8.30468016
   9.08922844  9.34234513  8.21032563
   2.01079525  4.01690199  3.15455630
   8.23180044  4.01612215  3.47104298
   1.94397955 10.24393323  3.40157038
   8.29981178 10.24662899  3.22328249
   2.08050060  4.01694651  9.52826661
   8.30150580  4.01616667  9.84475329
   2.01368490 10.24397776  9.77528069
   8.36951713 10.24667351  9.59699280
   2.01161016  2.21110532  3.15682018
   8.23331865  2.21231986  3.47247609
   1.94549776  8.44013094  3.40300348
   8.30062669  8.44083231  3.22554637
   2.08131551  2.21114984  9.53053049
   8.30302401  2.21236438  9.84618640
   2.01520311  8.44017546  9.77671380
   8.37033204  8.44087683  9.59925668
   4.44743334  3.96247884  3.28701439
  10.66852574  3.95971974  3.27083096
   4.38070485 10.18753082  3.20135836
  10.73644987 10.19220583  3.35574058
   4.51713869  3.96252336  9.66072470
  10.73823110  3.95976426  9.64454128
   4.45041020 10.18757534  9.57506867
  10.80615522 10.19225036  9.72945089
   4.44783776  2.26749985  3.28927255
  10.66961307  2.27199419  3.27222176
   4.38179218  8.49980528  3.20274916
  10.73685429  8.49722685  3.35799874
   4.51754311  2.26754437  9.66298287
  10.73931843  2.27203871  9.64593207
   4.45149753  8.49984980  9.57645947
  10.80655964  8.49727137  9.73170906
   3.79982473  3.11663285  4.57665265
  10.21418494  3.11664927  4.64207012
   3.92636404  9.34446036  4.57259751
  10.08884126  9.34635985  4.64537884
   3.86953008  3.11667737 10.95036296
  10.28389029  3.11669379 11.01578043
   3.99606939  9.34450488 10.94630783
  10.15854661  9.34640437 11.01908915
   6.01061668  6.23865167  6.29599044
  12.29893556  6.22148747  6.36511456
   6.01111467 12.44929855  6.29564196
  12.29843757  0.01084059  6.36546305
   6.08032203  6.23869620 12.66970076
  12.36864092  6.22153199 12.73882488
   6.08082002 12.44934308 12.66935227
  12.36814293  0.01088511 12.73917336
   5.75309171  6.23437466  3.09088332
  12.04123751  6.22568318  3.16003907
   5.75341661 12.45349427  3.09056647
  12.04091261  0.00656357  3.16035593
   5.82279706  6.23441918  9.46459364
  12.11094286  6.22572771  9.53374938
   5.82312196 12.45353879  9.46427678
  12.11061796  0.00660810  9.53406624
   5.83278997  3.11497769  0.18115471
  11.76950923  3.11595138  0.31351017
   5.48168834  9.34376247  0.24403757
  12.12180650  9.34470469  0.24988090
   5.90249532  3.11502221  6.55486502
  11.83921459  3.11599591  6.68722049
   5.55139369  9.34380699  6.61774788
  12.19151185  9.34474921  6.62359121
   2.78367514  6.02086091  5.90913083
   9.07204877  6.43848173  5.97820439
   2.78303224  0.20875474  5.90947820
   9.07269167 12.25058790  5.97785702
   2.85338050  6.02090543 12.28284115
   9.14175413  6.43852626 12.35191471
   2.85273760  0.20879926 12.28318852
   9.14239703 12.25063242 12.35156734
 


--------------------------------------------------------------------------------------------------------


 k-point  1 :   0.0000 0.0000 0.0000  plane waves:   84007
 k-point  2 :   0.3333-0.0000-0.0000  plane waves:   84003
 k-point  3 :   0.0000 0.3333-0.0000  plane waves:   83995
 k-point  4 :   0.3333 0.3333 0.0000  plane waves:   84018
 k-point  5 :  -0.3333 0.3333 0.0000  plane waves:   84019
 k-point  6 :   0.0000 0.0000 0.3333  plane waves:   83960
 k-point  7 :   0.3333 0.0000 0.3333  plane waves:   83937
 k-point  8 :  -0.3333 0.0000 0.3333  plane waves:   83982
 k-point  9 :   0.0000 0.3333 0.3333  plane waves:   83984
 k-point 10 :   0.3333 0.3333 0.3333  plane waves:   84012
 k-point 11 :  -0.3333 0.3333 0.3333  plane waves:   83970
 k-point 12 :   0.0000-0.3333 0.3333  plane waves:   83977
 k-point 13 :   0.3333-0.3333 0.3333  plane waves:   84013
 k-point 14 :  -0.3333-0.3333 0.3333  plane waves:   83973

 maximum and minimum number of plane-waves per node :     28039    27934

 maximum number of plane-waves:     84019
 maximum index in each direction: 
   IXMAX=   27   IYMAX=   27   IZMAX=   27
   IXMIN=  -27   IYMIN=  -27   IZMIN=  -27

 NGX is ok and might be reduce to 110
 WARNING: aliasing errors must be expected set NGY to 110 to avoid them
 NGZ is ok and might be reduce to 110
 aliasing errors are usually negligible using standard VASP settings
 and one can safely disregard these warnings

 parallel 3D FFT for wavefunctions:
    minimum data exchange during FFTs selected (reduces bandwidth)
 parallel 3D FFT for charge:
    minimum data exchange during FFTs selected (reduces bandwidth)


 total amount of memory used by VASP on root node   697522. kBytes
========================================================================

   base      :      30000. kBytes
   nonl-proj :     325712. kBytes
   fftplans  :      80881. kBytes
   grid      :      57435. kBytes
   one-center:        497. kBytes
   wavefun   :     202997. kBytes
 
     INWAV:  cpu time    0.0000: real time    0.0000
 Broyden mixing: mesh for mixing (old mesh)
   NGX = 55   NGY = 53   NGZ = 55
  (NGX  =224   NGY  =216   NGZ  =224)
  gives a total of 160325 points

 initial charge density was supplied:
 charge density of overlapping atoms calculated
 number of electron     400.0000000 magnetization 
 keeping initial charge density in first step


--------------------------------------------------------------------------------------------------------


 Maximum index for augmentation-charges        14486 (set IRDMAX)


--------------------------------------------------------------------------------------------------------


 First call to EWALD:  gamma=   0.141
 Maximum number of real-space cells 3x 3x 3
 Maximum number of reciprocal cells 3x 3x 3

 FEWALD executed in parallel
    FEWALD:  cpu time    0.0080: real time    0.0099


----------------------------------------- Iteration    1(   1)  ---------------------------------------


    POTLOK:  cpu time    0.4480: real time    0.4459
    SETDIJ:  cpu time    0.7520: real time    0.7544
     EDDAV:  cpu time   71.4045: real time   71.4512
       DOS:  cpu time    0.0040: real time    0.0009
    --------------------------------------------
      LOOP:  cpu time   72.6085: real time   73.5998

 eigenvalue-minimisations  :  7176
 total energy-change (2. order) : 0.3601068E+04  (-0.1894747E+05)
 number of electron     400.0000000 magnetization 
 augmentation part      400.0000000 magnetization 

 Free energy of the ion-electron system (eV)
  ---------------------------------------------------
  alpha Z        PSCENC =       370.05370877
  Ewald energy   TEWEN  =    -15521.93473335
  -Hartree energ DENC   =     -8126.22286445
  -exchange      EXHF   =         0.00000000
  -V(xc)+E(xc)   XCENC  =       389.95253936
  PAW double counting   =     20601.23165652   -19855.90553853
  entropy T*S    EENTRO =        -0.00000000
  eigenvalues    EBANDS =       994.88671144
  atomic energy  EATOM  =     24749.00668030
  Solvation  Ediel_sol  =         0.00000000
  ---------------------------------------------------
  free energy    TOTEN  =      3601.06816006 eV

  energy without entropy =     3601.06816006  energy(sigma->0) =     3601.06816006


--------------------------------------------------------------------------------------------------------




----------------------------------------- Iteration    1(   2)  ---------------------------------------


     EDDAV:  cpu time   77.6008: real time   77.6496
       DOS:  cpu time    0.0040: real time    0.0019
    --------------------------------------------
      LOOP:  cpu time   77.6048: real time   77.6602

 eigenvalue-minimisations  :  7992
 total energy-change (2. order) :-0.3400762E+04  (-0.3205844E+04)
 number of electron     400.0000000 magnetization 
 augmentation part      400.0000000 magnetization 

 Free energy of the ion-electron system (eV)
  ---------------------------------------------------
  alpha Z        PSCENC =       370.05370877
  Ewald energy   TEWEN  =    -15521.93473335
  -Hartree energ DENC   =     -8126.22286445
  -exchange      EXHF   =         0.00000000
  -V(xc)+E(xc)   XCENC  =       389.95253936
  PAW double counting   =     20601.23165652   -19855.90553853
  entropy T*S    EENTRO =        -0.00004179
  eigenvalues    EBANDS =     -2405.87478244
  atomic energy  EATOM  =     24749.00668030
  Solvation  Ediel_sol  =         0.00000000
  ---------------------------------------------------
  free energy    TOTEN  =       200.30662439 eV

  energy without entropy =      200.30666618  energy(sigma->0) =      200.30664529


--------------------------------------------------------------------------------------------------------




----------------------------------------- Iteration    1(   3)  ---------------------------------------


     EDDAV:  cpu time   88.9656: real time   89.0204
       DOS:  cpu time    0.0040: real time    0.0010
    --------------------------------------------
      LOOP:  cpu time   88.9696: real time   89.0296

 eigenvalue-minimisations  :  9464
 total energy-change (2. order) :-0.5987237E+03  (-0.5900209E+03)
 number of electron     400.0000000 magnetization 
 augmentation part      400.0000000 magnetization 

 Free energy of the ion-electron system (eV)
  ---------------------------------------------------
  alpha Z        PSCENC =       370.05370877
  Ewald energy   TEWEN  =    -15521.93473335
  -Hartree energ DENC   =     -8126.22286445
  -exchange      EXHF   =         0.00000000
  -V(xc)+E(xc)   XCENC  =       389.95253936
  PAW double counting   =     20601.23165652   -19855.90553853
  entropy T*S    EENTRO =         0.00000000
  eigenvalues    EBANDS =     -3004.59853478
  atomic energy  EATOM  =     24749.00668030
  Solvation  Ediel_sol  =         0.00000000
  ---------------------------------------------------
  free energy    TOTEN  =      -398.41708616 eV

  energy without entropy =     -398.41708616  energy(sigma->0) =     -398.41708616


--------------------------------------------------------------------------------------------------------




----------------------------------------- Iteration    1(   4)  ---------------------------------------


     EDDAV:  cpu time   89.3896: real time   89.4432
       DOS:  cpu time    0.0000: real time    0.0009
    --------------------------------------------
      LOOP:  cpu time   89.3896: real time   90.2344

 eigenvalue-minimisations  :  9600
 total energy-change (2. order) :-0.4017317E+02  (-0.3999942E+02)
 number of electron     400.0000000 magnetization 
 augmentation part      400.0000000 magnetization 

 Free energy of the ion-electron system (eV)
  ---------------------------------------------------
  alpha Z        PSCENC =       370.05370877
  Ewald energy   TEWEN  =    -15521.93473335
  -Hartree energ DENC   =     -8126.22286445
  -exchange      EXHF   =         0.00000000
  -V(xc)+E(xc)   XCENC  =       389.95253936
  PAW double counting   =     20601.23165652   -19855.90553853
  entropy T*S    EENTRO =         0.00000000
  eigenvalues    EBANDS =     -3044.77170894
  atomic energy  EATOM  =     24749.00668030
  Solvation  Ediel_sol  =         0.00000000
  ---------------------------------------------------
  free energy    TOTEN  =      -438.59026032 eV

  energy without entropy =     -438.59026032  energy(sigma->0) =     -438.59026032


--------------------------------------------------------------------------------------------------------




----------------------------------------- Iteration    1(   5)  ---------------------------------------


     EDDAV:  cpu time   91.1497: real time   91.2049
       DOS:  cpu time    0.0040: real time    0.0010
    CHARGE:  cpu time    3.3082: real time    3.3107
    MIXING:  cpu time    0.0120: real time    0.0130
    --------------------------------------------
      LOOP:  cpu time   94.4739: real time   94.5518

 eigenvalue-minimisations  :  9760
 total energy-change (2. order) :-0.1529150E+01  (-0.1526885E+01)
 number of electron     400.0000000 magnetization 
 augmentation part        7.5663096 magnetization 

 Broyden mixing:
  rms(total) = 0.29673E+01    rms(broyden)= 0.29672E+01
  rms(prec ) = 0.35178E+01
  weight for this iteration     100.00

 Free energy of the ion-electron system (eV)
  ---------------------------------------------------
  alpha Z        PSCENC =       370.05370877
  Ewald energy   TEWEN  =    -15521.93473335
  -Hartree energ DENC   =     -8126.22286445
  -exchange      EXHF   =         0.00000000
  -V(xc)+E(xc)   XCENC  =       389.95253936
  PAW double counting   =     20601.23165652   -19855.90553853
  entropy T*S    EENTRO =         0.00000000
  eigenvalues    EBANDS =     -3046.30085902
  atomic energy  EATOM  =     24749.00668030
  Solvation  Ediel_sol  =         0.00000000
  ---------------------------------------------------
  free energy    TOTEN  =      -440.11941040 eV

  energy without entropy =     -440.11941040  energy(sigma->0) =     -440.11941040


--------------------------------------------------------------------------------------------------------




----------------------------------------- Iteration    1(   6)  ---------------------------------------


    POTLOK:  cpu time    0.4400: real time    0.4407
    SETDIJ:  cpu time    0.7560: real time    0.7560
     EDDAV:  cpu time   88.1575: real time   88.2096
       DOS:  cpu time    0.0000: real time    0.0010
    CHARGE:  cpu time    3.3042: real time    3.3079
    MIXING:  cpu time    0.0120: real time    0.0132
    --------------------------------------------
      LOOP:  cpu time   92.6738: real time   94.0589

 eigenvalue-minimisations  :  9488
 total energy-change (2. order) : 0.2057392E+02  (-0.4148572E+01)
 number of electron     400.0000000 magnetization 
 augmentation part        7.8731098 magnetization 

 Broyden mixing:
  rms(total) = 0.15688E+01    rms(broyden)= 0.15687E+01
  rms(prec ) = 0.17466E+01
  weight for this iteration     100.00

 eigenvalues of (default mixing * dielectric matrix)
  average eigenvalue GAMMA=   1.5527
  1.5527

 Free energy of the ion-electron system (eV)
  ---------------------------------------------------
  alpha Z        PSCENC =       370.05370877
  Ewald energy   TEWEN  =    -15521.93473335
  -Hartree energ DENC   =     -8298.65356026
  -exchange      EXHF   =         0.00000000
  -V(xc)+E(xc)   XCENC  =       404.14545354
  PAW double counting   =     23066.26805927   -22319.05618589
  entropy T*S    EENTRO =        -0.00000000
  eigenvalues    EBANDS =     -2869.37491198
  atomic energy  EATOM  =     24749.00668030
  Solvation  Ediel_sol  =         0.00000000
  ---------------------------------------------------
  free energy    TOTEN  =      -419.54548959 eV

  energy without entropy =     -419.54548959  energy(sigma->0) =     -419.54548959


--------------------------------------------------------------------------------------------------------




----------------------------------------- Iteration    1(   7)  ---------------------------------------


    POTLOK:  cpu time    0.4400: real time    0.4411
    SETDIJ:  cpu time    0.7760: real time    0.7770
     EDDAV:  cpu time   93.6259: real time   93.6839
       DOS:  cpu time    0.0000: real time    0.0011
    CHARGE:  cpu time    3.3042: real time    3.3054
    MIXING:  cpu time    0.0120: real time    0.0133
    --------------------------------------------
      LOOP:  cpu time   98.1621: real time   98.2335

 eigenvalue-minimisations  : 10200
 total energy-change (2. order) : 0.2474939E+01  (-0.1471276E+01)
 number of electron     400.0000000 magnetization 
 augmentation part        8.0064800 magnetization 

 Broyden mixing:
  rms(total) = 0.78044E+00    rms(broyden)= 0.78042E+00
  rms(prec ) = 0.83268E+00
  weight for this iteration     100.00

 eigenvalues of (default mixing * dielectric matrix)
  average eigenvalue GAMMA=   1.9254
  1.4508  2.4001

 Free energy of the ion-electron system (eV)
  ---------------------------------------------------
  alpha Z        PSCENC =       370.05370877
  Ewald energy   TEWEN  =    -15521.93473335
  -Hartree energ DENC   =     -8387.96275796
  -exchange      EXHF   =         0.00000000
  -V(xc)+E(xc)   XCENC  =       413.70279279
  PAW double counting   =     26169.45176931   -25421.18450085
  entropy T*S    EENTRO =         0.00000000
  eigenvalues    EBANDS =     -2788.20350994
  atomic energy  EATOM  =     24749.00668030
  Solvation  Ediel_sol  =         0.00000000
  ---------------------------------------------------
  free energy    TOTEN  =      -417.07055091 eV

  energy without entropy =     -417.07055091  energy(sigma->0) =     -417.07055091


--------------------------------------------------------------------------------------------------------




----------------------------------------- Iteration    1(   8)  ---------------------------------------


    POTLOK:  cpu time    0.4400: real time    0.4420
    SETDIJ:  cpu time    0.7720: real time    0.7734
     EDDAV:  cpu time   81.6451: real time   81.6954
       DOS:  cpu time    0.0040: real time    0.0009
    CHARGE:  cpu time    3.3002: real time    3.3045
    MIXING:  cpu time    0.0160: real time    0.0135
    --------------------------------------------
      LOOP:  cpu time   86.1814: real time   86.2404

 eigenvalue-minimisations  :  8584
 total energy-change (2. order) : 0.1708018E+00  (-0.3069510E+00)
 number of electron     400.0000000 magnetization 
 augmentation part        7.9381782 magnetization 

 Broyden mixing:
  rms(total) = 0.18352E+00    rms(broyden)= 0.18352E+00
  rms(prec ) = 0.22270E+00
  weight for this iteration     100.00

 eigenvalues of (default mixing * dielectric matrix)
  average eigenvalue GAMMA=   1.6336
  2.3805  1.2601  1.2601

 Free energy of the ion-electron system (eV)
  ---------------------------------------------------
  alpha Z        PSCENC =       370.05370877
  Ewald energy   TEWEN  =    -15521.93473335
  -Hartree energ DENC   =     -8395.80950664
  -exchange      EXHF   =         0.00000000
  -V(xc)+E(xc)   XCENC  =       416.90313865
  PAW double counting   =     28616.52876341   -27869.27419925
  entropy T*S    EENTRO =         0.00000000
  eigenvalues    EBANDS =     -2782.37360099
  atomic energy  EATOM  =     24749.00668030
  Solvation  Ediel_sol  =         0.00000000
  ---------------------------------------------------
  free energy    TOTEN  =      -416.89974909 eV

  energy without entropy =     -416.89974909  energy(sigma->0) =     -416.89974909


--------------------------------------------------------------------------------------------------------




----------------------------------------- Iteration    1(   9)  ---------------------------------------


    POTLOK:  cpu time    0.4400: real time    0.4404
    SETDIJ:  cpu time    0.7800: real time    0.7787
     EDDAV:  cpu time   88.3895: real time   88.4454
       DOS:  cpu time    0.0040: real time    0.0018
    CHARGE:  cpu time    3.3042: real time    3.3059
    MIXING:  cpu time    0.0120: real time    0.0137
    --------------------------------------------
      LOOP:  cpu time   92.9298: real time   92.9971

 eigenvalue-minimisations  :  9424
 total energy-change (2. order) : 0.7271082E-01  (-0.7556914E-01)
 number of electron     400.0000000 magnetization 
 augmentation part        7.9495351 magnetization 

 Broyden mixing:
  rms(total) = 0.73260E-01    rms(broyden)= 0.73253E-01
  rms(prec ) = 0.82317E-01
  weight for this iteration     100.00

 eigenvalues of (default mixing * dielectric matrix)
  average eigenvalue GAMMA=   1.5472
  2.3291  1.5347  1.1188  1.2061

 Free energy of the ion-electron system (eV)
  ---------------------------------------------------
  alpha Z        PSCENC =       370.05370877
  Ewald energy   TEWEN  =    -15521.93473335
  -Hartree energ DENC   =     -8413.93490804
  -exchange      EXHF   =         0.00000000
  -V(xc)+E(xc)   XCENC  =       417.98314910
  PAW double counting   =     28637.71393312   -27890.54249852
  entropy T*S    EENTRO =        -0.00000000
  eigenvalues    EBANDS =     -2765.17236965
  atomic energy  EATOM  =     24749.00668030
  Solvation  Ediel_sol  =         0.00000000
  ---------------------------------------------------
  free energy    TOTEN  =      -416.82703827 eV

  energy without entropy =     -416.82703827  energy(sigma->0) =     -416.82703827


--------------------------------------------------------------------------------------------------------




----------------------------------------- Iteration    1(  10)  ---------------------------------------


    POTLOK:  cpu time    0.4400: real time    0.4403
    SETDIJ:  cpu time    0.7760: real time    0.7776
     EDDAV:  cpu time   85.0333: real time   85.0896
       DOS:  cpu time    0.0000: real time    0.0010
    CHARGE:  cpu time    3.3042: real time    3.3051
    MIXING:  cpu time    0.0160: real time    0.0140
    --------------------------------------------
      LOOP:  cpu time   89.5736: real time   89.6387

 eigenvalue-minimisations  :  8960
 total energy-change (2. order) :-0.1170378E-01  (-0.1086638E-01)
 number of electron     400.0000000 magnetization 
 augmentation part        7.9259497 magnetization 

 Broyden mixing:
  rms(total) = 0.45764E-01    rms(broyden)= 0.45762E-01
  rms(prec ) = 0.52725E-01
  weight for this iteration     100.00

 eigenvalues of (default mixing * dielectric matrix)
  average eigenvalue GAMMA=   1.4617
  2.3853  1.9486  1.0643  1.0643  0.8459

 Free energy of the ion-electron system (eV)
  ---------------------------------------------------
  alpha Z        PSCENC =       370.05370877
  Ewald energy   TEWEN  =    -15521.93473335
  -Hartree energ DENC   =     -8414.79801810
  -exchange      EXHF   =         0.00000000
  -V(xc)+E(xc)   XCENC  =       418.08828824
  PAW double counting   =     28681.20390533   -27934.27266313
  entropy T*S    EENTRO =        -0.00000000
  eigenvalues    EBANDS =     -2764.18591011
  atomic energy  EATOM  =     24749.00668030
  Solvation  Ediel_sol  =         0.00000000
  ---------------------------------------------------
  free energy    TOTEN  =      -416.83874206 eV

  energy without entropy =     -416.83874206  energy(sigma->0) =     -416.83874206


--------------------------------------------------------------------------------------------------------




----------------------------------------- Iteration    1(  11)  ---------------------------------------


    POTLOK:  cpu time    0.4400: real time    0.4394
    SETDIJ:  cpu time    0.7600: real time    0.7586
     EDDAV:  cpu time   92.0098: real time   92.0664
       DOS:  cpu time    0.0000: real time    0.0018
    CHARGE:  cpu time    3.3042: real time    3.3059
    MIXING:  cpu time    0.0160: real time    0.0143
    --------------------------------------------
      LOOP:  cpu time   96.5300: real time   96.6492

 eigenvalue-minimisations  :  9928
 total energy-change (2. order) : 0.6724713E-04  (-0.1328234E-02)
 number of electron     400.0000000 magnetization 
 augmentation part        7.9265608 magnetization 

 Broyden mixing:
  rms(total) = 0.20022E-01    rms(broyden)= 0.20022E-01
  rms(prec ) = 0.23819E-01
  weight for this iteration     100.00

 eigenvalues of (default mixing * dielectric matrix)
  average eigenvalue GAMMA=   1.5270
  2.4428  1.9526  1.5824  1.0671  1.0585  1.0585

 Free energy of the ion-electron system (eV)
  ---------------------------------------------------
  alpha Z        PSCENC =       370.05370877
  Ewald energy   TEWEN  =    -15521.93473335
  -Hartree energ DENC   =     -8414.09736088
  -exchange      EXHF   =         0.00000000
  -V(xc)+E(xc)   XCENC  =       418.10698008
  PAW double counting   =     28716.88614089   -27970.02968124
  entropy T*S    EENTRO =         0.00000000
  eigenvalues    EBANDS =     -2764.83040937
  atomic energy  EATOM  =     24749.00668030
  Solvation  Ediel_sol  =         0.00000000
  ---------------------------------------------------
  free energy    TOTEN  =      -416.83867481 eV

  energy without entropy =     -416.83867481  energy(sigma->0) =     -416.83867481


--------------------------------------------------------------------------------------------------------




----------------------------------------- Iteration    1(  12)  ---------------------------------------


    POTLOK:  cpu time    0.4400: real time    0.4407
    SETDIJ:  cpu time    0.7800: real time    0.7786
     EDDAV:  cpu time   91.1977: real time   91.2545
       DOS:  cpu time    0.0000: real time    0.0010
    CHARGE:  cpu time    3.3042: real time    3.3068
    MIXING:  cpu time    0.0160: real time    0.0148
    --------------------------------------------
      LOOP:  cpu time   95.7380: real time   95.8068

 eigenvalue-minimisations  :  9800
 total energy-change (2. order) :-0.1362562E-02  (-0.9400156E-03)
 number of electron     400.0000000 magnetization 
 augmentation part        7.9376943 magnetization 

 Broyden mixing:
  rms(total) = 0.10721E-01    rms(broyden)= 0.10721E-01
  rms(prec ) = 0.12829E-01
  weight for this iteration     100.00

 eigenvalues of (default mixing * dielectric matrix)
  average eigenvalue GAMMA=   1.4775
  2.6095  2.3082  1.3007  1.3007  0.9361  0.9435  0.9435

 Free energy of the ion-electron system (eV)
  ---------------------------------------------------
  alpha Z        PSCENC =       370.05370877
  Ewald energy   TEWEN  =    -15521.93473335
  -Hartree energ DENC   =     -8414.51666043
  -exchange      EXHF   =         0.00000000
  -V(xc)+E(xc)   XCENC  =       418.16524729
  PAW double counting   =     28708.44121521   -27961.60600662
  entropy T*S    EENTRO =         0.00000000
  eigenvalues    EBANDS =     -2764.44948855
  atomic energy  EATOM  =     24749.00668030
  Solvation  Ediel_sol  =         0.00000000
  ---------------------------------------------------
  free energy    TOTEN  =      -416.84003737 eV

  energy without entropy =     -416.84003737  energy(sigma->0) =     -416.84003737


--------------------------------------------------------------------------------------------------------




----------------------------------------- Iteration    1(  13)  ---------------------------------------


    POTLOK:  cpu time    0.4400: real time    0.4404
    SETDIJ:  cpu time    0.7560: real time    0.7577
     EDDAV:  cpu time   80.5490: real time   80.6005
       DOS:  cpu time    0.0040: real time    0.0008
    CHARGE:  cpu time    3.3042: real time    3.3081
    MIXING:  cpu time    0.0160: real time    0.0148
    --------------------------------------------
      LOOP:  cpu time   85.0733: real time   85.7888

 eigenvalue-minimisations  :  8408
 total energy-change (2. order) :-0.1396845E-03  (-0.1401174E-03)
 number of electron     400.0000000 magnetization 
 augmentation part        7.9362229 magnetization 

 Broyden mixing:
  rms(total) = 0.72531E-02    rms(broyden)= 0.72529E-02
  rms(prec ) = 0.82638E-02
  weight for this iteration     100.00

 eigenvalues of (default mixing * dielectric matrix)
  average eigenvalue GAMMA=   1.4478
  2.6025  2.3530  1.5348  1.1893  0.9655  0.9655  0.9860  0.9860

 Free energy of the ion-electron system (eV)
  ---------------------------------------------------
  alpha Z        PSCENC =       370.05370877
  Ewald energy   TEWEN  =    -15521.93473335
  -Hartree energ DENC   =     -8414.82127244
  -exchange      EXHF   =         0.00000000
  -V(xc)+E(xc)   XCENC  =       418.19091866
  PAW double counting   =     28708.40026592   -27961.57781672
  entropy T*S    EENTRO =         0.00000000
  eigenvalues    EBANDS =     -2764.15792819
  atomic energy  EATOM  =     24749.00668030
  Solvation  Ediel_sol  =         0.00000000
  ---------------------------------------------------
  free energy    TOTEN  =      -416.84017706 eV

  energy without entropy =     -416.84017706  energy(sigma->0) =     -416.84017706


--------------------------------------------------------------------------------------------------------




----------------------------------------- Iteration    1(  14)  ---------------------------------------


    POTLOK:  cpu time    0.4440: real time    0.4436
    SETDIJ:  cpu time    0.7760: real time    0.7780
     EDDAV:  cpu time   83.4012: real time   83.4544
       DOS:  cpu time    0.0040: real time    0.0020
    CHARGE:  cpu time    3.3042: real time    3.3069
    MIXING:  cpu time    0.0160: real time    0.0152
    --------------------------------------------
      LOOP:  cpu time   87.9495: real time   88.0082

 eigenvalue-minimisations  :  8656
 total energy-change (2. order) :-0.4243237E-04  (-0.2759247E-04)
 number of electron     400.0000000 magnetization 
 augmentation part        7.9363935 magnetization 

 Broyden mixing:
  rms(total) = 0.32176E-02    rms(broyden)= 0.32175E-02
  rms(prec ) = 0.37537E-02
  weight for this iteration     100.00

 eigenvalues of (default mixing * dielectric matrix)
  average eigenvalue GAMMA=   1.5358
  2.7391  2.7391  1.9251  1.0507  1.0507  1.2696  0.9416  1.0529  1.0529

 Free energy of the ion-electron system (eV)
  ---------------------------------------------------
  alpha Z        PSCENC =       370.05370877
  Ewald energy   TEWEN  =    -15521.93473335
  -Hartree energ DENC   =     -8415.13603134
  -exchange      EXHF   =         0.00000000
  -V(xc)+E(xc)   XCENC  =       418.21111996
  PAW double counting   =     28703.45698536   -27956.62131200
  entropy T*S    EENTRO =        -0.00000000
  eigenvalues    EBANDS =     -2763.87663718
  atomic energy  EATOM  =     24749.00668030
  Solvation  Ediel_sol  =         0.00000000
  ---------------------------------------------------
  free energy    TOTEN  =      -416.84021949 eV

  energy without entropy =     -416.84021949  energy(sigma->0) =     -416.84021949


--------------------------------------------------------------------------------------------------------




----------------------------------------- Iteration    1(  15)  ---------------------------------------


    POTLOK:  cpu time    0.4440: real time    0.4416
    SETDIJ:  cpu time    0.7680: real time    0.7720
     EDDAV:  cpu time   78.3449: real time   78.3953
       DOS:  cpu time    0.0040: real time    0.0034
    CHARGE:  cpu time    3.3042: real time    3.3068
    MIXING:  cpu time    0.0160: real time    0.0156
    --------------------------------------------
[...]
   0.801E+01 0.381E-01 0.520E+02   -.808E+01 -.426E-01 -.576E+02   0.780E-01 0.452E-02 0.569E+01   -.168E-07 0.774E-08 0.254E-07
   0.295E+01 0.560E-01 0.518E+02   -.225E+01 -.629E-01 -.574E+02   -.712E+00 0.689E-02 0.565E+01   -.116E-07 0.476E-08 0.424E-07
   0.320E+02 -.392E+02 -.828E+01   -.350E+02 0.438E+02 0.973E+01   0.297E+01 -.464E+01 -.145E+01   0.193E-07 -.462E-07 -.310E-07
   0.288E+02 -.392E+02 -.120E+02   -.315E+02 0.438E+02 0.139E+02   0.276E+01 -.463E+01 -.184E+01   -.146E-08 -.190E-07 -.152E-07
   0.288E+02 -.392E+02 -.120E+02   -.315E+02 0.438E+02 0.139E+02   0.276E+01 -.463E+01 -.184E+01   -.375E-08 -.233E-07 -.166E-07
   0.320E+02 -.392E+02 -.828E+01   -.350E+02 0.438E+02 0.973E+01   0.297E+01 -.464E+01 -.145E+01   0.240E-07 -.474E-07 -.200E-07
   0.320E+02 -.392E+02 -.828E+01   -.350E+02 0.438E+02 0.973E+01   0.297E+01 -.464E+01 -.145E+01   0.120E-07 -.357E-07 -.630E-08
   0.288E+02 -.392E+02 -.120E+02   -.315E+02 0.438E+02 0.139E+02   0.276E+01 -.463E+01 -.184E+01   -.135E-08 -.162E-07 -.863E-08
   0.288E+02 -.392E+02 -.120E+02   -.315E+02 0.438E+02 0.139E+02   0.276E+01 -.463E+01 -.184E+01   -.672E-08 -.164E-07 -.131E-07
   0.320E+02 -.392E+02 -.828E+01   -.350E+02 0.438E+02 0.973E+01   0.297E+01 -.464E+01 -.145E+01   0.199E-07 -.357E-07 -.223E-07
   0.320E+02 0.392E+02 -.837E+01   -.349E+02 -.438E+02 0.983E+01   0.296E+01 0.464E+01 -.147E+01   0.173E-07 0.470E-07 -.234E-07
   0.287E+02 0.392E+02 -.121E+02   -.315E+02 -.439E+02 0.139E+02   0.276E+01 0.463E+01 -.185E+01   0.649E-09 0.231E-07 -.104E-07
   0.287E+02 0.392E+02 -.121E+02   -.315E+02 -.439E+02 0.139E+02   0.276E+01 0.463E+01 -.185E+01   -.161E-08 0.252E-07 -.250E-07
   0.320E+02 0.392E+02 -.837E+01   -.349E+02 -.438E+02 0.983E+01   0.296E+01 0.464E+01 -.147E+01   0.216E-07 0.415E-07 -.231E-07
   0.320E+02 0.392E+02 -.837E+01   -.349E+02 -.438E+02 0.983E+01   0.296E+01 0.464E+01 -.147E+01   0.143E-07 0.353E-07 -.157E-07
   0.287E+02 0.392E+02 -.121E+02   -.315E+02 -.439E+02 0.139E+02   0.276E+01 0.463E+01 -.185E+01   -.267E-08 0.123E-07 -.139E-07
   0.287E+02 0.392E+02 -.121E+02   -.315E+02 -.439E+02 0.139E+02   0.276E+01 0.463E+01 -.185E+01   -.919E-08 0.151E-07 -.452E-08
   0.320E+02 0.392E+02 -.837E+01   -.349E+02 -.438E+02 0.983E+01   0.296E+01 0.464E+01 -.147E+01   0.218E-07 0.404E-07 -.175E-07
   -.345E+02 -.479E+02 0.152E+02   0.381E+02 0.534E+02 -.168E+02   -.367E+01 -.551E+01 0.163E+01   -.131E-08 0.184E-07 -.179E-07
   -.322E+02 -.485E+02 0.194E+02   0.356E+02 0.540E+02 -.215E+02   -.346E+01 -.551E+01 0.213E+01   0.168E-07 0.271E-07 -.190E-07
   -.322E+02 -.485E+02 0.194E+02   0.356E+02 0.540E+02 -.215E+02   -.346E+01 -.551E+01 0.213E+01   0.118E-07 0.286E-07 -.120E-07
   -.345E+02 -.479E+02 0.152E+02   0.381E+02 0.534E+02 -.168E+02   -.367E+01 -.551E+01 0.163E+01   -.240E-08 0.136E-07 -.109E-07
   -.345E+02 -.479E+02 0.152E+02   0.381E+02 0.534E+02 -.168E+02   -.367E+01 -.551E+01 0.163E+01   -.671E-08 0.319E-08 -.661E-09
   -.322E+02 -.485E+02 0.194E+02   0.356E+02 0.540E+02 -.215E+02   -.346E+01 -.551E+01 0.213E+01   0.240E-07 0.286E-07 -.611E-08
   -.322E+02 -.485E+02 0.194E+02   0.356E+02 0.540E+02 -.215E+02   -.346E+01 -.551E+01 0.213E+01   0.168E-07 0.388E-07 -.160E-07
   -.345E+02 -.479E+02 0.152E+02   0.381E+02 0.534E+02 -.168E+02   -.367E+01 -.551E+01 0.163E+01   -.141E-09 0.121E-07 -.791E-08
   -.345E+02 0.479E+02 0.150E+02   0.382E+02 -.534E+02 -.167E+02   -.367E+01 0.551E+01 0.161E+01   -.712E-08 -.549E-08 -.847E-08
   -.322E+02 0.485E+02 0.193E+02   0.357E+02 -.539E+02 -.214E+02   -.346E+01 0.551E+01 0.212E+01   0.164E-07 -.254E-07 -.124E-07
   -.322E+02 0.485E+02 0.193E+02   0.357E+02 -.539E+02 -.214E+02   -.346E+01 0.551E+01 0.212E+01   0.180E-07 -.413E-07 -.205E-07
   -.345E+02 0.479E+02 0.150E+02   0.382E+02 -.534E+02 -.167E+02   -.367E+01 0.551E+01 0.161E+01   -.291E-08 -.153E-07 -.175E-07
   -.345E+02 0.479E+02 0.150E+02   0.382E+02 -.534E+02 -.167E+02   -.367E+01 0.551E+01 0.161E+01   -.480E-08 -.106E-07 -.919E-08
   -.322E+02 0.485E+02 0.193E+02   0.357E+02 -.539E+02 -.214E+02   -.346E+01 0.551E+01 0.212E+01   0.206E-07 -.269E-07 -.118E-07
   -.322E+02 0.485E+02 0.193E+02   0.357E+02 -.539E+02 -.214E+02   -.346E+01 0.551E+01 0.212E+01   0.150E-07 -.300E-07 -.809E-08
   -.345E+02 0.479E+02 0.150E+02   0.382E+02 -.534E+02 -.167E+02   -.367E+01 0.551E+01 0.161E+01   0.318E-08 -.147E-07 -.231E-08
   0.817E+01 -.849E-01 -.650E+02   -.871E+01 0.945E-01 0.720E+02   0.532E+00 -.963E-02 -.703E+01   -.132E-07 -.486E-08 0.153E-07
   -.770E+00 -.601E-01 -.624E+02   0.126E+01 0.656E-01 0.691E+02   -.508E+00 -.543E-02 -.683E+01   0.350E-08 -.530E-08 0.431E-07
   -.770E+00 -.601E-01 -.624E+02   0.126E+01 0.656E-01 0.691E+02   -.508E+00 -.543E-02 -.683E+01   -.322E-08 0.580E-08 0.396E-07
   0.817E+01 -.849E-01 -.650E+02   -.871E+01 0.945E-01 0.720E+02   0.532E+00 -.963E-02 -.703E+01   -.151E-07 0.307E-08 0.175E-07
   0.817E+01 -.849E-01 -.650E+02   -.871E+01 0.945E-01 0.720E+02   0.532E+00 -.963E-02 -.703E+01   -.154E-07 0.324E-08 0.578E-09
   -.770E+00 -.601E-01 -.624E+02   0.126E+01 0.656E-01 0.691E+02   -.508E+00 -.543E-02 -.683E+01   0.661E-08 0.137E-08 0.257E-07
   -.770E+00 -.601E-01 -.624E+02   0.126E+01 0.656E-01 0.691E+02   -.508E+00 -.543E-02 -.683E+01   -.101E-07 -.126E-08 0.255E-07
   0.817E+01 -.849E-01 -.650E+02   -.871E+01 0.945E-01 0.720E+02   0.532E+00 -.963E-02 -.703E+01   -.691E-08 -.144E-08 -.598E-09
   -.311E+02 -.576E+01 -.117E+02   0.300E+02 0.579E+01 0.114E+02   0.111E+01 -.330E-01 0.278E+00   0.249E-06 0.710E-07 -.254E-06
   -.310E+02 0.590E+01 -.117E+02   0.299E+02 -.594E+01 0.114E+02   0.111E+01 0.429E-01 0.277E+00   -.124E-06 -.415E-06 -.370E-07
   -.310E+02 0.590E+01 -.117E+02   0.299E+02 -.594E+01 0.114E+02   0.111E+01 0.429E-01 0.277E+00   0.328E-07 0.779E-07 0.313E-06
   -.311E+02 -.576E+01 -.117E+02   0.300E+02 0.579E+01 0.114E+02   0.111E+01 -.330E-01 0.278E+00   -.140E-08 0.173E-06 0.117E-06
   -.311E+02 -.576E+01 -.117E+02   0.300E+02 0.579E+01 0.114E+02   0.111E+01 -.330E-01 0.278E+00   -.807E-07 -.928E-07 -.342E-07
   -.310E+02 0.590E+01 -.117E+02   0.299E+02 -.594E+01 0.114E+02   0.111E+01 0.429E-01 0.277E+00   0.155E-06 -.203E-06 -.235E-06
   -.310E+02 0.590E+01 -.117E+02   0.299E+02 -.594E+01 0.114E+02   0.111E+01 0.429E-01 0.277E+00   0.678E-08 0.475E-07 -.218E-06
   -.311E+02 -.576E+01 -.117E+02   0.300E+02 0.579E+01 0.114E+02   0.111E+01 -.330E-01 0.278E+00   0.120E-07 0.201E-06 -.207E-06
   -.173E+02 -.300E+01 0.561E+01   0.175E+02 0.301E+01 -.555E+01   -.159E+00 -.875E-02 -.669E-01   0.265E-08 -.387E-07 -.132E-06
   -.173E+02 0.308E+01 0.562E+01   0.174E+02 -.309E+01 -.556E+01   -.159E+00 0.999E-02 -.667E-01   0.711E-08 0.239E-10 -.208E-06
   -.173E+02 0.308E+01 0.562E+01   0.174E+02 -.309E+01 -.556E+01   -.159E+00 0.999E-02 -.667E-01   0.744E-08 0.379E-07 0.351E-07
   -.173E+02 -.300E+01 0.561E+01   0.175E+02 0.301E+01 -.555E+01   -.159E+00 -.875E-02 -.669E-01   0.207E-07 -.642E-09 -.315E-07
   -.173E+02 -.300E+01 0.561E+01   0.175E+02 0.301E+01 -.555E+01   -.159E+00 -.875E-02 -.669E-01   0.123E-08 -.377E-07 0.141E-06
   -.173E+02 0.308E+01 0.562E+01   0.174E+02 -.309E+01 -.556E+01   -.159E+00 0.999E-02 -.667E-01   0.195E-07 0.625E-09 0.211E-06
   -.173E+02 0.308E+01 0.562E+01   0.174E+02 -.309E+01 -.556E+01   -.159E+00 0.999E-02 -.667E-01   0.629E-08 0.356E-07 -.644E-07
   -.173E+02 -.300E+01 0.561E+01   0.175E+02 0.301E+01 -.555E+01   -.159E+00 -.875E-02 -.669E-01   0.213E-07 -.223E-08 0.111E-07
   -.237E+02 -.498E-01 -.161E+02   0.237E+02 0.511E-01 0.166E+02   -.122E-01 -.963E-03 -.550E+00   -.409E-07 0.358E-07 -.141E-07
   -.468E+01 -.585E-01 -.163E+02   0.452E+01 0.598E-01 0.169E+02   0.156E+00 -.994E-03 -.662E+00   0.889E-07 0.329E-07 -.421E-07
   -.468E+01 -.585E-01 -.163E+02   0.452E+01 0.598E-01 0.169E+02   0.156E+00 -.994E-03 -.662E+00   0.308E-07 -.328E-07 -.131E-07
   -.237E+02 -.498E-01 -.161E+02   0.237E+02 0.511E-01 0.166E+02   -.122E-01 -.963E-03 -.550E+00   -.504E-08 -.346E-07 -.336E-07
   -.237E+02 -.498E-01 -.161E+02   0.237E+02 0.511E-01 0.166E+02   -.122E-01 -.963E-03 -.550E+00   -.151E-07 -.172E-06 0.456E-07
   -.468E+01 -.585E-01 -.163E+02   0.452E+01 0.598E-01 0.169E+02   0.156E+00 -.994E-03 -.662E+00   0.330E-07 -.153E-06 0.506E-07
   -.468E+01 -.585E-01 -.163E+02   0.452E+01 0.598E-01 0.169E+02   0.156E+00 -.994E-03 -.662E+00   0.487E-07 0.172E-06 0.489E-07
   -.237E+02 -.498E-01 -.161E+02   0.237E+02 0.511E-01 0.166E+02   -.122E-01 -.963E-03 -.550E+00   -.357E-07 0.171E-06 0.598E-07
   0.414E+01 0.331E+01 -.264E+01   -.360E+01 -.346E+01 0.224E+01   -.540E+00 0.136E+00 0.406E+00   0.679E-08 -.775E-07 -.126E-07
   0.414E+01 -.329E+01 -.262E+01   -.360E+01 0.344E+01 0.222E+01   -.540E+00 -.137E+00 0.407E+00   0.807E-08 0.332E-07 -.186E-08
   0.414E+01 -.329E+01 -.262E+01   -.360E+01 0.344E+01 0.222E+01   -.540E+00 -.137E+00 0.407E+00   -.222E-07 0.500E-07 0.621E-07
   0.414E+01 0.331E+01 -.264E+01   -.360E+01 -.346E+01 0.224E+01   -.540E+00 0.136E+00 0.406E+00   -.683E-08 -.123E-07 0.621E-07
   0.414E+01 0.331E+01 -.264E+01   -.360E+01 -.346E+01 0.224E+01   -.540E+00 0.136E+00 0.406E+00   -.107E-06 -.507E-07 0.356E-08
   0.414E+01 -.329E+01 -.262E+01   -.360E+01 0.344E+01 0.222E+01   -.540E+00 -.137E+00 0.407E+00   0.725E-07 0.108E-07 -.612E-08
   0.414E+01 -.329E+01 -.262E+01   -.360E+01 0.344E+01 0.222E+01   -.540E+00 -.137E+00 0.407E+00   -.944E-07 0.583E-07 -.313E-07
   0.414E+01 0.331E+01 -.264E+01   -.360E+01 -.346E+01 0.224E+01   -.540E+00 0.136E+00 0.406E+00   0.627E-07 -.160E-07 -.314E-07
 -----------------------------------------------------------------------------------------------
   -.534E+02 -.108E+00 -.233E+02   -.302E-13 0.135E-12 0.144E-12   0.534E+02 0.108E+00 0.233E+02   -.107E-05 -.129E-06 -.123E-05
 
 
 POSITION                                       TOTAL-FORCE (eV/Angst)
 -----------------------------------------------------------------------------------
      2.56491      3.11388      2.85718         0.066144     -0.000036     -0.016890
      8.74306      3.11436      3.10216         0.061726     -0.000013     -0.025381
      2.45524      9.34217      3.03269         0.061726     -0.000013     -0.025381
      8.85392      9.34361      2.92590         0.066144     -0.000036     -0.016890
      2.63461      3.11392      9.23089         0.066144     -0.000036     -0.016890
      8.81277      3.11440      9.47587         0.061726     -0.000013     -0.025381
      2.52495      9.34221      9.40640         0.061726     -0.000013     -0.025381
      8.92363      9.34365      9.29961         0.066144     -0.000036     -0.016890
      3.88409      3.11522      3.53840        -0.036659     -0.000282      0.016866
     10.14152      3.11582      3.59714        -0.032292     -0.000303      0.023996
      3.85370      9.34363      3.52767        -0.032292     -0.000303      0.023996
     10.17311      9.34494      3.60712        -0.036659     -0.000282      0.016866
      3.95379      3.11526      9.91211        -0.036659     -0.000282      0.016866
     10.21123      3.11586      9.97085        -0.032292     -0.000303      0.023996
      3.92341      9.34367      9.90138        -0.032292     -0.000303      0.023996
     10.24281      9.34499      9.98083        -0.036659     -0.000282      0.016866
      2.73051      3.11257      1.76789        -0.011519      0.000049      0.084396
      8.75674      3.11351      2.00044         0.001327      0.000003      0.083822
      2.46892      9.34132      1.93097         0.001327      0.000003      0.083822
      9.01952      9.34230      1.83662        -0.011519      0.000049      0.084396
      2.80021      3.11262      8.14160        -0.011519      0.000049      0.084396
      8.82645      3.11355      8.37415         0.001327      0.000003      0.083822
      2.53863      9.34136      8.30468         0.001327      0.000003      0.083822
      9.08923      9.34235      8.21033        -0.011519      0.000049      0.084396
      2.01080      4.01690      3.15456         0.025278     -0.015415     -0.004383
      8.23180      4.01612      3.47104         0.024292     -0.015794     -0.007011
      1.94398     10.24393      3.40157         0.024292     -0.015794     -0.007011
      8.29981     10.24663      3.22328         0.025278     -0.015415     -0.004383
      2.08050      4.01695      9.52827         0.025278     -0.015415     -0.004383
      8.30151      4.01617      9.84475         0.024292     -0.015794     -0.007011
      2.01368     10.24398      9.77528         0.024292     -0.015794     -0.007011
      8.36952     10.24667      9.59699         0.025278     -0.015415     -0.004383
      2.01161      2.21111      3.15682         0.024933      0.015494     -0.004582
      8.23332      2.21232      3.47248         0.023920      0.015903     -0.007189
      1.94550      8.44013      3.40300         0.023920      0.015903     -0.007189
      8.30063      8.44083      3.22555         0.024933      0.015494     -0.004582
      2.08132      2.21115      9.53053         0.024933      0.015494     -0.004582
      8.30302      2.21236      9.84619         0.023920      0.015903     -0.007189
      2.01520      8.44018      9.77671         0.023920      0.015903     -0.007189
      8.37033      8.44088      9.59926         0.024933      0.015494     -0.004582
      4.44743      3.96248      3.28701        -0.030783     -0.022002      0.006636
     10.66853      3.95972      3.27083        -0.029558     -0.021495      0.010902
      4.38070     10.18753      3.20136        -0.029558     -0.021495      0.010902
     10.73645     10.19221      3.35574        -0.030783     -0.022002      0.006636
      4.51714      3.96252      9.66072        -0.030783     -0.022002      0.006636
     10.73823      3.95976      9.64454        -0.029558     -0.021495      0.010902
      4.45041     10.18758      9.57507        -0.029558     -0.021495      0.010902
     10.80616     10.19225      9.72945        -0.030783     -0.022002      0.006636
      4.44784      2.26750      3.28927        -0.031121      0.022400      0.006219
     10.66961      2.27199      3.27222        -0.029936      0.021869      0.010555
      4.38179      8.49981      3.20275        -0.029936      0.021869      0.010555
     10.73685      8.49723      3.35800        -0.031121      0.022400      0.006219
      4.51754      2.26754      9.66298        -0.031121      0.022400      0.006219
     10.73932      2.27204      9.64593        -0.029936      0.021869      0.010555
      4.45150      8.49985      9.57646        -0.029936      0.021869      0.010555
     10.80656      8.49727      9.73171        -0.031121      0.022400      0.006219
      3.79982      3.11663      4.57665        -0.004708     -0.000021     -0.083845
     10.21418      3.11665      4.64207        -0.020635      0.000028     -0.082529
      3.92636      9.34446      4.57260        -0.020635      0.000028     -0.082529
     10.08884      9.34636      4.64538        -0.004708     -0.000021     -0.083845
      3.86953      3.11668     10.95036        -0.004708     -0.000021     -0.083845
     10.28389      3.11669     11.01578        -0.020635      0.000028     -0.082529
      3.99607      9.34450     10.94631        -0.020635      0.000028     -0.082529
     10.15855      9.34640     11.01909        -0.004708     -0.000021     -0.083845
      6.01062      6.23865      6.29599         0.000108      0.000969      0.000826
     12.29894      6.22149      6.36511         0.000099     -0.001352      0.000833
      6.01111     12.44930      6.29564         0.000099     -0.001352      0.000833
     12.29844      0.01084      6.36546         0.000108      0.000969      0.000826
      6.08032      6.23870     12.66970         0.000108      0.000969      0.000826
     12.36864      6.22153     12.73882         0.000099     -0.001352      0.000833
      6.08082     12.44934     12.66935         0.000099     -0.001352      0.000833
     12.36814      0.01089     12.73917         0.000108      0.000969      0.000826
      5.75309      6.23437      3.09088         0.000975      0.000363     -0.003835
     12.04124      6.22568      3.16004         0.000954     -0.000687     -0.003830
      5.75342     12.45349      3.09057         0.000954     -0.000687     -0.003830
     12.04091      0.00656      3.16036         0.000975      0.000363     -0.003835
      5.82280      6.23442      9.46459         0.000975      0.000363     -0.003835
     12.11094      6.22573      9.53375         0.000954     -0.000687     -0.003830
      5.82312     12.45354      9.46428         0.000954     -0.000687     -0.003830
     12.11062      0.00661      9.53407         0.000975      0.000363     -0.003835
      5.83279      3.11498      0.18115         0.015188      0.000299     -0.012739
     11.76951      3.11595      0.31351        -0.006221      0.000300     -0.009248
      5.48169      9.34376      0.24404        -0.006221      0.000300     -0.009248
     12.12181      9.34470      0.24988         0.015188      0.000299     -0.012739
      5.90250      3.11502      6.55487         0.015188      0.000299     -0.012739
     11.83921      3.11600      6.68722        -0.006221      0.000300     -0.009248
      5.55139      9.34381      6.61775        -0.006221      0.000300     -0.009248
     12.19151      9.34475      6.62359         0.015188      0.000299     -0.012739
      2.78368      6.02086      5.90913        -0.005753     -0.011701      0.008206
      9.07205      6.43848      5.97820        -0.005760      0.011422      0.008201
      2.78303      0.20875      5.90948        -0.005760      0.011422      0.008201
      9.07269     12.25059      5.97786        -0.005753     -0.011701      0.008206
      2.85338      6.02091     12.28284        -0.005753     -0.011701      0.008206
      9.14175      6.43853     12.35191        -0.005760      0.011422      0.008201
      2.85274      0.20880     12.28319        -0.005760      0.011422      0.008201
      9.14240     12.25063     12.35157        -0.005753     -0.011701      0.008206
 -----------------------------------------------------------------------------------
    total drift:                                0.004111     -0.000028     -0.001044


--------------------------------------------------------------------------------------------------------



  FREE ENERGIE OF THE ION-ELECTRON SYSTEM (eV)
  ---------------------------------------------------
  free  energy   TOTEN  =      -416.84026789 eV

  energy  without entropy=     -416.84026789  energy(sigma->0) =     -416.84026789
 


--------------------------------------------------------------------------------------------------------


    POTLOK:  cpu time    1.2401: real time    1.2431


--------------------------------------------------------------------------------------------------------


     LOOP+:  cpu time 3397.9364: real time 3406.3273
    4ORBIT:  cpu time    0.0000: real time    0.0000

 total amount of memory used by VASP on root node   697522. kBytes
========================================================================

   base      :      30000. kBytes
   nonl-proj :     325712. kBytes
   fftplans  :      80881. kBytes
   grid      :      57435. kBytes
   one-center:        497. kBytes
   wavefun   :     202997. kBytes
 
  
  
 General timing and accounting informations for this job:
 ========================================================
  
                  Total CPU time used (sec):     3427.422
                            User time (sec):     3425.982
                          System time (sec):        1.440
                         Elapsed time (sec):     3436.274
  
                   Maximum memory used (kb):      650072.
                   Average memory used (kb):           0.
  
                          Minor page faults:       285630
                          Major page faults:            0
                 Voluntary context switches:         2336
