  96  96   0   0
  0.2080188E+02  0.1257760E-08  0.1245754E-08  0.1274818E-08  0.5000000E-15
  1.000000000000000E-004
  CAR 
 MAPbI3-Cubic                            
      8.85272004    -19.47473508  301      1.34594444      1.00000000
    -19.475  0.0000E+00  0.0000E+00
    -19.380  0.0000E+00  0.0000E+00
    -19.286  0.0000E+00  0.0000E+00
    -19.191  0.0000E+00  0.0000E+00
    -19.097  0.0000E+00  0.0000E+00
    -19.003  0.0000E+00  0.0000E+00
    -18.908  0.0000E+00  0.0000E+00
    -18.814  0.0000E+00  0.0000E+00
    -18.719  0.0000E+00  0.0000E+00
    -18.625  0.0000E+00  0.0000E+00
    -18.530  0.0000E+00  0.0000E+00
    -18.436  0.0000E+00  0.0000E+00
    -18.342  0.0000E+00  0.0000E+00
    -18.247  0.0000E+00  0.0000E+00
    -18.153  0.0000E+00  0.1600E+02
    -18.058  0.0000E+00  0.1600E+02
    -17.964  0.0000E+00  0.1600E+02
    -17.870  0.0000E+00  0.1600E+02
    -17.775  0.0000E+00  0.1600E+02
    -17.681  0.0000E+00  0.1600E+02
    -17.586  0.0000E+00  0.1600E+02
    -17.492  0.0000E+00  0.1600E+02
    -17.397  0.0000E+00  0.1600E+02
    -17.303  0.0000E+00  0.1600E+02
    -17.209  0.0000E+00  0.1600E+02
    -17.114  0.0000E+00  0.1600E+02
    -17.020  0.0000E+00  0.1600E+02
    -16.925  0.0000E+00  0.1600E+02
    -16.831  0.0000E+00  0.1600E+02
    -16.736  0.0000E+00  0.1600E+02
    -16.642  0.0000E+00  0.1600E+02
    -16.548  0.0000E+00  0.1600E+02
    -16.453  0.0000E+00  0.1600E+02
    -16.359  0.0000E+00  0.1600E+02
    -16.264  0.0000E+00  0.1600E+02
    -16.170  0.0000E+00  0.1600E+02
    -16.075  0.0000E+00  0.1600E+02
    -15.981  0.0000E+00  0.1600E+02
    -15.887  0.0000E+00  0.1600E+02
    -15.792  0.0000E+00  0.1600E+02
    -15.698  0.0000E+00  0.1600E+02
    -15.603  0.0000E+00  0.1600E+02
    -15.509  0.0000E+00  0.1600E+02
    -15.414  0.0000E+00  0.1600E+02
    -15.320  0.0000E+00  0.1600E+02
    -15.226  0.0000E+00  0.1600E+02
    -15.131  0.0000E+00  0.1600E+02
    -15.037  0.1694E+03  0.9600E+02
    -14.942  0.0000E+00  0.9600E+02
    -14.848  0.0000E+00  0.9600E+02
    -14.753  0.0000E+00  0.9600E+02
    -14.659  0.0000E+00  0.9600E+02
    -14.565  0.0000E+00  0.9600E+02
    -14.470  0.0000E+00  0.9600E+02
    -14.376  0.0000E+00  0.9600E+02
    -14.281  0.0000E+00  0.9600E+02
    -14.187  0.0000E+00  0.9600E+02
    -14.093  0.0000E+00  0.9600E+02
    -13.998  0.0000E+00  0.9600E+02
    -13.904  0.0000E+00  0.9600E+02
    -13.809  0.0000E+00  0.9600E+02
    -13.715  0.0000E+00  0.9600E+02
    -13.620  0.0000E+00  0.9600E+02
    -13.526  0.0000E+00  0.9600E+02
    -13.432  0.0000E+00  0.9600E+02
    -13.337  0.0000E+00  0.9600E+02
    -13.243  0.0000E+00  0.9600E+02
    -13.148  0.0000E+00  0.9600E+02
    -13.054  0.0000E+00  0.9600E+02
    -12.959  0.0000E+00  0.9600E+02
    -12.865  0.0000E+00  0.9600E+02
    -12.771  0.0000E+00  0.9600E+02
    -12.676  0.0000E+00  0.9600E+02
    -12.582  0.0000E+00  0.9600E+02
    -12.487  0.0000E+00  0.9600E+02
    -12.393  0.0000E+00  0.9600E+02
    -12.298  0.0000E+00  0.9600E+02
    -12.204  0.0000E+00  0.9600E+02
    -12.110  0.0000E+00  0.9600E+02
    -12.015  0.0000E+00  0.9600E+02
    -11.921  0.0000E+00  0.9600E+02
    -11.826  0.0000E+00  0.9600E+02
    -11.732  0.0000E+00  0.9600E+02
    -11.637  0.0000E+00  0.9600E+02
    -11.543  0.0000E+00  0.9600E+02
    -11.449  0.0000E+00  0.9600E+02
    -11.354  0.0000E+00  0.9600E+02
    -11.260  0.0000E+00  0.1040E+03
    -11.165  0.0000E+00  0.1120E+03
    -11.071  0.0000E+00  0.1120E+03
    -10.976  0.0000E+00  0.1120E+03
    -10.882  0.0000E+00  0.1120E+03
    -10.788  0.1602E+01  0.1124E+03
    -10.693  0.4178E-07  0.1141E+03
    -10.599  0.3139E+01  0.1196E+03
    -10.504  0.2157E+01  0.1256E+03
    -10.410  0.1569E+01  0.1288E+03
    -10.316  0.4159E+01  0.1349E+03
    -10.221  0.0000E+00  0.1400E+03
    -10.127  0.3941E+01  0.1440E+03
    -10.032  0.1269E+02  0.1522E+03
     -9.938  0.3139E+01  0.1594E+03
     -9.843  0.0000E+00  0.1600E+03
     -9.749  0.0000E+00  0.1600E+03
     -9.655  0.0000E+00  0.1600E+03
     -9.560  0.0000E+00  0.1600E+03
     -9.466  0.0000E+00  0.1600E+03
     -9.371  0.0000E+00  0.1600E+03
     -9.277  0.0000E+00  0.1600E+03
     -9.182  0.0000E+00  0.1600E+03
     -9.088  0.0000E+00  0.1600E+03
     -8.994  0.0000E+00  0.1600E+03
     -8.899  0.0000E+00  0.1600E+03
     -8.805  0.0000E+00  0.1600E+03
     -8.710  0.0000E+00  0.1600E+03
     -8.616  0.0000E+00  0.1600E+03
     -8.521  0.0000E+00  0.1600E+03
     -8.427  0.0000E+00  0.1600E+03
     -8.333  0.0000E+00  0.1600E+03
     -8.238  0.0000E+00  0.1600E+03
     -8.144  0.0000E+00  0.1600E+03
     -8.049  0.0000E+00  0.1600E+03
     -7.955  0.0000E+00  0.1600E+03
     -7.860  0.0000E+00  0.1600E+03
     -7.766  0.0000E+00  0.1600E+03
     -7.672  0.0000E+00  0.1680E+03
     -7.577  0.0000E+00  0.1840E+03
     -7.483  0.0000E+00  0.1920E+03
     -7.388  0.0000E+00  0.1920E+03
     -7.294  0.0000E+00  0.1920E+03
     -7.200  0.0000E+00  0.1920E+03
     -7.105  0.0000E+00  0.1920E+03
     -7.011  0.0000E+00  0.1921E+03
     -6.916  0.3085E+01  0.1924E+03
     -6.822  0.0000E+00  0.1925E+03
     -6.727  0.0000E+00  0.1934E+03
     -6.633  0.0000E+00  0.1943E+03
     -6.539  0.7815E+01  0.1953E+03
     -6.444  0.0000E+00  0.1964E+03
     -6.350  0.1569E+01  0.1990E+03
     -6.255  0.3138E+01  0.2003E+03
     -6.161  0.3138E+01  0.2021E+03
     -6.066  0.0000E+00  0.2036E+03
     -5.972  0.3010E+00  0.2054E+03
     -5.878  0.2383E-06  0.2064E+03
     -5.783  0.1118E+02  0.2139E+03
     -5.689  0.2731E+02  0.2187E+03
     -5.594  0.0000E+00  0.2235E+03
     -5.500  0.0000E+00  0.2239E+03
     -5.405  0.0000E+00  0.2240E+03
     -5.311  0.0000E+00  0.2240E+03
     -5.217  0.0000E+00  0.2240E+03
     -5.122  0.0000E+00  0.2240E+03
     -5.028  0.0000E+00  0.2240E+03
     -4.933  0.0000E+00  0.2240E+03
     -4.839  0.0000E+00  0.2240E+03
     -4.744  0.0000E+00  0.2240E+03
     -4.650  0.0000E+00  0.2240E+03
     -4.556  0.0000E+00  0.2240E+03
     -4.461  0.0000E+00  0.2240E+03
     -4.367  0.0000E+00  0.2240E+03
     -4.272  0.0000E+00  0.2240E+03
     -4.178  0.0000E+00  0.2240E+03
     -4.083  0.0000E+00  0.2240E+03
     -3.989  0.0000E+00  0.2240E+03
     -3.895  0.0000E+00  0.2240E+03
     -3.800  0.0000E+00  0.2240E+03
     -3.706  0.0000E+00  0.2240E+03
     -3.611  0.2119E-07  0.2240E+03
     -3.517  0.2359E+02  0.2416E+03
     -3.423  0.0000E+00  0.2560E+03
     -3.328  0.0000E+00  0.2560E+03
     -3.234  0.0000E+00  0.2560E+03
     -3.139  0.0000E+00  0.2560E+03
     -3.045  0.0000E+00  0.2560E+03
     -2.950  0.0000E+00  0.2560E+03
     -2.856  0.0000E+00  0.2560E+03
     -2.762  0.0000E+00  0.2560E+03
     -2.667  0.0000E+00  0.2560E+03
     -2.573  0.0000E+00  0.2560E+03
     -2.478  0.0000E+00  0.2560E+03
     -2.384  0.0000E+00  0.2560E+03
     -2.289  0.0000E+00  0.2560E+03
     -2.195  0.0000E+00  0.2560E+03
     -2.101  0.8252E-03  0.2561E+03
     -2.006  0.2640E+01  0.2585E+03
     -1.912  0.2509E+01  0.2611E+03
     -1.817  0.2522E+01  0.2634E+03
     -1.723  0.3827E-07  0.2657E+03
     -1.628  0.9460E-02  0.2687E+03
     -1.534  0.3137E+01  0.2723E+03
     -1.440  0.3629E+01  0.2758E+03
     -1.345  0.3138E+01  0.2788E+03
     -1.251  0.0000E+00  0.2799E+03
     -1.156  0.0000E+00  0.2800E+03
     -1.062  0.0000E+00  0.2800E+03
     -0.967  0.0000E+00  0.2811E+03
     -0.873  0.4707E+01  0.2858E+03
     -0.779  0.2980E+01  0.2922E+03
     -0.684  0.9753E+01  0.2974E+03
     -0.590  0.1569E+01  0.3023E+03
     -0.495  0.3064E+01  0.3054E+03
     -0.401  0.1983E+01  0.3094E+03
     -0.306  0.2353E+01  0.3145E+03
     -0.212  0.6245E+01  0.3211E+03
     -0.118  0.2986E+00  0.3274E+03
     -0.023  0.5286E+01  0.3335E+03
      0.071  0.5925E+01  0.3400E+03
      0.166  0.4208E+01  0.3483E+03
      0.260  0.2063E+01  0.3582E+03
      0.354  0.1130E+02  0.3656E+03
      0.449  0.1208E+02  0.3723E+03
      0.543  0.7321E+01  0.3817E+03
      0.638  0.9130E+01  0.3881E+03
      0.732  0.5489E+01  0.3931E+03
      0.827  0.0000E+00  0.3963E+03
      0.921  0.7745E+00  0.3982E+03
      1.015  0.0000E+00  0.3993E+03
      1.110  0.3131E+01  0.3996E+03
      1.204  0.5254E+00  0.3998E+03
      1.299  0.0000E+00  0.3999E+03
      1.393  0.0000E+00  0.4000E+03
      1.488  0.0000E+00  0.4000E+03
      1.582  0.0000E+00  0.4000E+03
      1.676  0.0000E+00  0.4000E+03
      1.771  0.0000E+00  0.4000E+03
      1.865  0.0000E+00  0.4000E+03
      1.960  0.0000E+00  0.4000E+03
      2.054  0.0000E+00  0.4000E+03
      2.149  0.0000E+00  0.4000E+03
      2.243  0.0000E+00  0.4000E+03
      2.337  0.0000E+00  0.4000E+03
      2.432  0.0000E+00  0.4000E+03
      2.526  0.0000E+00  0.4000E+03
      2.621  0.0000E+00  0.4000E+03
      2.715  0.0000E+00  0.4000E+03
      2.810  0.0000E+00  0.4000E+03
      2.904  0.0000E+00  0.4000E+03
      2.998  0.2890E+01  0.4005E+03
      3.093  0.0000E+00  0.4007E+03
      3.187  0.1428E+01  0.4013E+03
      3.282  0.0000E+00  0.4029E+03
      3.376  0.2463E+01  0.4039E+03
      3.471  0.0000E+00  0.4059E+03
      3.565  0.0000E+00  0.4067E+03
      3.659  0.0000E+00  0.4077E+03
      3.754  0.0000E+00  0.4083E+03
      3.848  0.6407E-01  0.4090E+03
      3.943  0.0000E+00  0.4102E+03
      4.037  0.3134E+01  0.4111E+03
      4.131  0.4238E-07  0.4136E+03
      4.226  0.2559E+01  0.4158E+03
      4.320  0.4707E+01  0.4182E+03
      4.415  0.3138E+01  0.4210E+03
      4.509  0.3205E+01  0.4230E+03
      4.604  0.0000E+00  0.4239E+03
      4.698  0.0000E+00  0.4240E+03
      4.792  0.0000E+00  0.4240E+03
      4.887  0.0000E+00  0.4240E+03
      4.981  0.0000E+00  0.4240E+03
      5.076  0.0000E+00  0.4241E+03
      5.170  0.1569E+01  0.4245E+03
      5.265  0.3118E+01  0.4263E+03
      5.359  0.0000E+00  0.4287E+03
      5.453  0.3730E+01  0.4322E+03
      5.548  0.8734E-01  0.4356E+03
      5.642  0.0000E+00  0.4388E+03
      5.737  0.3777E+01  0.4409E+03
      5.831  0.3111E+01  0.4429E+03
      5.926  0.6301E+00  0.4449E+03
      6.020  0.1760E+01  0.4480E+03
      6.114  0.4706E+01  0.4521E+03
      6.209  0.4707E+01  0.4566E+03
      6.303  0.4639E+00  0.4598E+03
      6.398  0.1618E+00  0.4628E+03
      6.492  0.8240E+01  0.4674E+03
      6.587  0.0000E+00  0.4727E+03
      6.681  0.3138E+01  0.4770E+03
      6.775  0.7902E+01  0.4808E+03
      6.870  0.1569E+01  0.4850E+03
      6.964  0.3679E+01  0.4879E+03
      7.059  0.1536E-10  0.4904E+03
      7.153  0.4934E+01  0.4965E+03
      7.247  0.3162E+01  0.5014E+03
      7.342  0.1900E-04  0.5041E+03
      7.436  0.1569E+01  0.5093E+03
      7.531  0.2230E+01  0.5115E+03
      7.625  0.0000E+00  0.5120E+03
      7.720  0.0000E+00  0.5120E+03
      7.814  0.0000E+00  0.5120E+03
      7.908  0.0000E+00  0.5120E+03
      8.003  0.0000E+00  0.5120E+03
      8.097  0.0000E+00  0.5120E+03
      8.192  0.0000E+00  0.5120E+03
      8.286  0.0000E+00  0.5120E+03
      8.381  0.0000E+00  0.5120E+03
      8.475  0.0000E+00  0.5120E+03
      8.569  0.0000E+00  0.5120E+03
      8.664  0.0000E+00  0.5120E+03
      8.758  0.0000E+00  0.5120E+03
      8.853  0.0000E+00  0.5120E+03
