 vasp.5.4.1 24Jun15 (build Nov 25 2015 16:01:35) complex                        
  
 executed on         CrayXC-Intel date 2016.06.10  04:48:42
 running on   24 total cores
 distrk:  each k-point on   24 cores,    1 groups
 distr:  one band on NCORES_PER_BAND=   3 cores,    8 groups


--------------------------------------------------------------------------------------------------------


 INCAR:
 POTCAR:    PAW_PBE C 08Apr2002                   
 POTCAR:    PAW_PBE N 08Apr2002                   
 POTCAR:    PAW_PBE H 15Jun2001                   
 POTCAR:    PAW_PBE Pb_d 06Sep2000                
 POTCAR:    PAW_PBE I 08Apr2002                   
 POTCAR:    PAW_PBE C 08Apr2002                   
   VRHFIN =C: s2p2                                                              
   LEXCH  = PE                                                                  
   EATOM  =   147.1560 eV,   10.8157 Ry                                         
                                                                                
   TITEL  = PAW_PBE C 08Apr2002                                                 
   LULTRA =        F    use ultrasoft PP ?                                      
   IUNSCR =        1    unscreen: 0-lin 1-nonlin 2-no                           
   RPACOR =    1.200    partial core radius                                     
   POMASS =   12.011; ZVAL   =    4.000    mass and valenz                      
   RCORE  =    1.500    outmost cutoff radius                                   
   RWIGS  =    1.630; RWIGS  =    0.863    wigner-seitz radius (au A)           
   ENMAX  =  400.000; ENMIN  =  300.000 eV                                      
   ICORE  =        2    local potential                                         
   LCOR   =        T    correct aug charges                                     
   LPAW   =        T    paw PP                                                  
   EAUG   =  644.873                                                            
   DEXC   =    0.000                                                            
   RMAX   =    1.529    core radius for proj-oper                               
   RAUG   =    1.300    factor for augmentation sphere                          
   RDEP   =    1.501    radius for radial grids                                 
   RDEPT  =    1.300    core radius for aug-charge                              
                                                                                
   Atomic configuration                                                         
    4 entries                                                                   
     n  l   j            E        occ.                                          
     1  0  0.50      -273.3789   2.0000                                         
     2  0  0.50       -13.7508   2.0000                                         
     2  1  0.50        -5.2854   2.0000                                         
     3  2  1.50        -5.4423   0.0000                                         
   Description                                                                  
     l       E           TYP  RCUT    TYP  RCUT                                 
     0    -13.7508458     23  1.200                                             
     0     -8.2022199     23  1.200                                             
     1     -5.2854383     23  1.500                                             
     1     34.0145650     23  1.500                                             
     2     -5.4423304      7  1.500                                             
  local pseudopotential read in
  partial core-charges read in
  partial kinetic energy density read in
  atomic valenz-charges read in
  non local Contribution for L=           0  read in
    real space projection operators read in
  non local Contribution for L=           0  read in
    real space projection operators read in
  non local Contribution for L=           1  read in
    real space projection operators read in
  non local Contribution for L=           1  read in
    real space projection operators read in
    PAW grid and wavefunctions read in
 
   number of l-projection  operators is LMAX  =           4
   number of lm-projection operators is LMMAX =           8
 
 POTCAR:    PAW_PBE N 08Apr2002                   
   VRHFIN =N: s2p3                                                              
   LEXCH  = PE                                                                  
   EATOM  =   264.5486 eV,   19.4438 Ry                                         
                                                                                
   TITEL  = PAW_PBE N 08Apr2002                                                 
   LULTRA =        F    use ultrasoft PP ?                                      
   IUNSCR =        1    unscreen: 0-lin 1-nonlin 2-no                           
   RPACOR =    1.200    partial core radius                                     
   POMASS =   14.001; ZVAL   =    5.000    mass and valenz                      
   RCORE  =    1.500    outmost cutoff radius                                   
   RWIGS  =    1.400; RWIGS  =    0.741    wigner-seitz radius (au A)           
   ENMAX  =  400.000; ENMIN  =  300.000 eV                                      
   ICORE  =        2    local potential                                         
   LCOR   =        T    correct aug charges                                     
   LPAW   =        T    paw PP                                                  
   EAUG   =  627.112                                                            
   DEXC   =    0.000                                                            
   RMAX   =    1.529    core radius for proj-oper                               
   RAUG   =    1.300    factor for augmentation sphere                          
   RDEP   =    1.514    radius for radial grids                                 
   RDEPT  =    1.338    core radius for aug-charge                              
                                                                                
   Atomic configuration                                                         
    4 entries                                                                   
     n  l   j            E        occ.                                          
     1  0  0.50      -384.7179   2.0000                                         
     2  0  0.50       -18.5828   2.0000                                         
     2  1  0.50        -7.0898   3.0000                                         
     3  2  1.50        -6.8029   0.0000                                         
   Description                                                                  
     l       E           TYP  RCUT    TYP  RCUT                                 
     0    -18.5828119     23  1.200                                             
     0    -13.5018863     23  1.200                                             
     1     -7.0897853     23  1.500                                             
     1      9.5240782     23  1.500                                             
     2     -6.8029130      7  1.500                                             
  local pseudopotential read in
  partial core-charges read in
  partial kinetic energy density read in
  atomic valenz-charges read in
  non local Contribution for L=           0  read in
    real space projection operators read in
  non local Contribution for L=           0  read in
    real space projection operators read in
  non local Contribution for L=           1  read in
    real space projection operators read in
  non local Contribution for L=           1  read in
    real space projection operators read in
    PAW grid and wavefunctions read in
 
   number of l-projection  operators is LMAX  =           4
   number of lm-projection operators is LMMAX =           8
 
 POTCAR:    PAW_PBE H 15Jun2001                   
   VRHFIN =H: ultrasoft test                                                    
   LEXCH  = PE                                                                  
   EATOM  =    12.4884 eV,    0.9179 Ry                                         
                                                                                
   TITEL  = PAW_PBE H 15Jun2001                                                 
   LULTRA =        F    use ultrasoft PP ?                                      
   IUNSCR =        0    unscreen: 0-lin 1-nonlin 2-no                           
   RPACOR =    0.000    partial core radius                                     
   POMASS =    1.000; ZVAL   =    1.000    mass and valenz                      
   RCORE  =    1.100    outmost cutoff radius                                   
   RWIGS  =    0.700; RWIGS  =    0.370    wigner-seitz radius (au A)           
   ENMAX  =  250.000; ENMIN  =  200.000 eV                                      
   RCLOC  =    0.701    cutoff for local pot                                    
   LCOR   =        T    correct aug charges                                     
   LPAW   =        T    paw PP                                                  
   EAUG   =  400.000                                                            
   RMAX   =    1.123    core radius for proj-oper                               
   RAUG   =    1.200    factor for augmentation sphere                          
   RDEP   =    1.112    radius for radial grids                                 
   RDEPT  =    0.926    core radius for aug-charge                              
                                                                                
   Atomic configuration                                                         
    2 entries                                                                   
     n  l   j            E        occ.                                          
     1  0  0.50        -6.4927   1.0000                                         
     2  1  0.50        -3.4015   0.0000                                         
   Description                                                                  
     l       E           TYP  RCUT    TYP  RCUT                                 
     0     -6.4927494     23  1.100                                             
     0      6.8029130     23  1.100                                             
     1     -4.0817478     23  1.100                                             
  local pseudopotential read in
  atomic valenz-charges read in
  non local Contribution for L=           0  read in
    real space projection operators read in
  non local Contribution for L=           0  read in
    real space projection operators read in
  non local Contribution for L=           1  read in
    real space projection operators read in
    PAW grid and wavefunctions read in
 
   number of l-projection  operators is LMAX  =           3
   number of lm-projection operators is LMMAX =           5
 
 POTCAR:    PAW_PBE Pb_d 06Sep2000                
   VRHFIN =Pb:                                                                  
   LEXCH  = PE                                                                  
   EATOM  =  1661.6185 eV,  122.1255 Ry                                         
                                                                                
   TITEL  = PAW_PBE Pb_d 06Sep2000                                              
   LULTRA =        F    use ultrasoft PP ?                                      
   IUNSCR =        1    unscreen: 0-lin 1-nonlin 2-no                           
   RPACOR =    2.200    partial core radius                                     
   POMASS =  207.200; ZVAL   =   14.000    mass and valenz                      
   RCORE  =    2.500    outmost cutoff radius                                   
   RWIGS  =    3.260; RWIGS  =    1.725    wigner-seitz radius (au A)           
   ENMAX  =  237.835; ENMIN  =  178.376 eV                                      
   ICORE  =        3    local potential                                         
   LCOR   =        T    correct aug charges                                     
   LPAW   =        T    paw PP                                                  
   EAUG   =  391.914                                                            
   DEXC   =    0.000                                                            
   RMAX   =    2.565    core radius for proj-oper                               
   RAUG   =    1.300    factor for augmentation sphere                          
   RDEP   =    2.643    radius for radial grids                                 
   RDEPT  =    2.092    core radius for aug-charge                              
                                                                                
   Atomic configuration                                                         
   16 entries                                                                   
     n  l   j            E        occ.                                          
     1  0  0.50    -88091.8466   2.0000                                         
     2  0  0.50    -15753.4197   2.0000                                         
     2  1  1.50    -13508.1797   6.0000                                         
     3  0  0.50     -3781.7194   2.0000                                         
     3  1  1.50     -3138.2529   6.0000                                         
     3  2  2.50     -2483.2977  10.0000                                         
     4  0  0.50      -856.2895   2.0000                                         
     4  1  1.50      -645.4942   6.0000                                         
     4  2  2.50      -401.8768  10.0000                                         
     4  3  3.50      -132.9059  14.0000                                         
     5  0  0.50      -144.0950   2.0000                                         
     5  1  1.50       -85.7879   6.0000                                         
     5  2  2.50       -21.1769  10.0000                                         
     6  0  0.50       -12.0372   2.0000                                         
     6  1  1.50        -3.4971   2.0000                                         
     5  3  2.50        -2.7212   0.0000                                         
   Description                                                                  
     l       E           TYP  RCUT    TYP  RCUT                                 
     2    -21.1768523     23  2.500                                             
     2      1.3605826     23  2.500                                             
     0    -12.0371562     23  2.500                                             
     0     13.6058260     23  2.500                                             
     1     -3.4971339     23  2.500                                             
     1     13.6058260     23  2.500                                             
     3     -1.3605826      7  2.500                                             
  local pseudopotential read in
  partial core-charges read in
  partial kinetic energy density read in
  atomic valenz-charges read in
  non local Contribution for L=           2  read in
    real space projection operators read in
  non local Contribution for L=           2  read in
    real space projection operators read in
  non local Contribution for L=           0  read in
    real space projection operators read in
  non local Contribution for L=           0  read in
    real space projection operators read in
  non local Contribution for L=           1  read in
    real space projection operators read in
  non local Contribution for L=           1  read in
    real space projection operators read in
    PAW grid and wavefunctions read in
 
   number of l-projection  operators is LMAX  =           6
   number of lm-projection operators is LMMAX =          18
 
 POTCAR:    PAW_PBE I 08Apr2002                   
   VRHFIN =I : s2p5                                                             
   LEXCH  = PE                                                                  
   EATOM  =   315.8678 eV,   23.2156 Ry                                         
                                                                                
   TITEL  = PAW_PBE I 08Apr2002                                                 
   LULTRA =        F    use ultrasoft PP ?                                      
   IUNSCR =        1    unscreen: 0-lin 1-nonlin 2-no                           
   RPACOR =    2.200    partial core radius                                     
   POMASS =  126.904; ZVAL   =    7.000    mass and valenz                      
   RCORE  =    2.300    outmost cutoff radius                                   
   RWIGS  =    2.810; RWIGS  =    1.487    wigner-seitz radius (au A)           
   ENMAX  =  175.647; ENMIN  =  131.735 eV                                      
   ICORE  =        3    local potential                                         
   LCOR   =        T    correct aug charges                                     
   LPAW   =        T    paw PP                                                  
   EAUG   =  370.139                                                            
   DEXC   =    0.000                                                            
   RMAX   =    2.359    core radius for proj-oper                               
   RAUG   =    1.300    factor for augmentation sphere                          
   RDEP   =    2.392    radius for radial grids                                 
   RDEPT  =    2.170    core radius for aug-charge                              
                                                                                
   Atomic configuration                                                         
   13 entries                                                                   
     n  l   j            E        occ.                                          
     1  0  0.50    -32976.3739   2.0000                                         
     2  0  0.50     -5094.5933   2.0000                                         
     2  1  1.50     -4572.0131   6.0000                                         
     3  0  0.50     -1028.2813   2.0000                                         
     3  1  1.50      -859.0250   6.0000                                         
     3  2  2.50      -605.7620  10.0000                                         
     4  0  0.50      -180.5540   2.0000                                         
     4  1  1.50      -127.5306   6.0000                                         
     4  2  2.50       -50.2720  10.0000                                         
     5  0  0.50       -17.4058   2.0000                                         
     5  1  0.50        -7.0851   5.0000                                         
     5  2  1.50        -7.0750   0.0000                                         
     4  3  2.50        -7.0750   0.0000                                         
   Description                                                                  
     l       E           TYP  RCUT    TYP  RCUT                                 
     0    -17.4058016     23  2.300                                             
     0    -18.7663842     23  2.300                                             
     1     -7.0850686     23  2.300                                             
     1     -4.2150896     23  2.300                                             
     2     -7.0750295     23  2.300                                             
     3     -1.3605826     23  2.300                                             
  local pseudopotential read in
  partial core-charges read in
  partial kinetic energy density read in
  atomic valenz-charges read in
  non local Contribution for L=           0  read in
    real space projection operators read in
  non local Contribution for L=           0  read in
    real space projection operators read in
  non local Contribution for L=           1  read in
    real space projection operators read in
  non local Contribution for L=           1  read in
    real space projection operators read in
  non local Contribution for L=           2  read in
    real space projection operators read in
    PAW grid and wavefunctions read in
 
   number of l-projection  operators is LMAX  =           5
   number of lm-projection operators is LMMAX =          13
 

 ----------------------------------------------------------------------------- 
|                                                                             |
|  ADVICE TO THIS USER RUNNING 'VASP/VAMP'   (HEAR YOUR MASTER'S VOICE ...):  |
|                                                                             |
|      You have a (more or less) 'large supercell' and for larger cells       |
|      it might be more efficient to use real space projection opertators     |
|      So try LREAL= Auto  in the INCAR   file.                               |
|      Mind: At the moment your POTCAR file does not contain real space       |
|       projectors, and has to be modified,  BUT if you                       |
|      want to do an extremely  accurate calculation you might also keep the  |
|      reciprocal projection scheme          (i.e. LREAL=.FALSE.)             |
|                                                                             |
 ----------------------------------------------------------------------------- 


 ----------------------------------------------------------------------------- 
|                                                                             |
|  ADVICE TO THIS USER RUNNING 'VASP/VAMP'   (HEAR YOUR MASTER'S VOICE ...):  |
|                                                                             |
|      You enforced a specific xc-type in the INCAR file,                     |
|      a different type was found on the POTCAR file                          |
|          I HOPE YOU KNOW, WHAT YOU ARE  DOING                               |
|                                                                             |
 ----------------------------------------------------------------------------- 

  PAW_PBE C 08Apr2002                   :
 energy of atom  1       EATOM= -147.1560
 kinetic energy error for atom=    0.0032 (will be added to EATOM!!)
  PAW_PBE N 08Apr2002                   :
 energy of atom  2       EATOM= -264.5486
 kinetic energy error for atom=    0.0061 (will be added to EATOM!!)
  PAW_PBE H 15Jun2001                   :
 energy of atom  3       EATOM=  -12.4884
 kinetic energy error for atom=    0.0002 (will be added to EATOM!!)
  PAW_PBE Pb_d 06Sep2000                :
 energy of atom  4       EATOM=-1661.6185
 kinetic energy error for atom=    0.0012 (will be added to EATOM!!)
  PAW_PBE I 08Apr2002                   :
 energy of atom  5       EATOM= -315.8678
 kinetic energy error for atom=    0.0003 (will be added to EATOM!!)
 
 
 POSCAR: C N H Pb I                              
  positions in direct lattice
  No initial velocities read in
 exchange correlation table for  LEXCH =       14
   RHO(1)=    0.500       N(1)  =     2000
   RHO(2)=  100.500       N(2)  =     4000
 


--------------------------------------------------------------------------------------------------------


 ion  position               nearest neighbor table
   1  0.198  0.250  0.229-  25 1.10  33 1.10  17 1.11   9 1.49
   2  0.696  0.250  0.229-  26 1.10  34 1.10  18 1.11  10 1.49
   3  0.196  0.750  0.229-  27 1.10  35 1.10  19 1.11  11 1.49
   4  0.698  0.750  0.229-  28 1.10  36 1.10  20 1.11  12 1.49
   5  0.196  0.250  0.729-  29 1.10  37 1.10  21 1.11  13 1.49
   6  0.698  0.250  0.729-  30 1.10  38 1.10  22 1.11  14 1.49
   7  0.198  0.750  0.729-  31 1.10  39 1.10  23 1.11  15 1.49
   8  0.696  0.750  0.729-  32 1.10  40 1.10  24 1.11  16 1.49
   9  0.311  0.250  0.261-  41 1.05  49 1.05  57 1.06   1 1.49
  10  0.798  0.250  0.286-  58 1.04  42 1.05  50 1.05   2 1.49
  11  0.298  0.750  0.286-  59 1.04  43 1.05  51 1.05   3 1.49
  12  0.811  0.750  0.261-  44 1.05  52 1.05  60 1.06   4 1.49
  13  0.298  0.250  0.786-  61 1.04  45 1.05  53 1.05   5 1.49
  14  0.811  0.250  0.761-  46 1.05  54 1.05  62 1.06   6 1.49
  15  0.311  0.750  0.761-  47 1.05  55 1.05  63 1.06   7 1.49
  16  0.798  0.750  0.786-  64 1.04  48 1.05  56 1.05   8 1.49
  17  0.196  0.250  0.142-   1 1.11
  18  0.715  0.250  0.144-   2 1.11
  19  0.215  0.750  0.144-   3 1.11
  20  0.696  0.750  0.142-   4 1.11
  21  0.215  0.250  0.644-   5 1.11
  22  0.696  0.250  0.642-   6 1.11
  23  0.196  0.750  0.642-   7 1.11
  24  0.715  0.750  0.644-   8 1.11
  25  0.158  0.322  0.260-   1 1.10
  26  0.651  0.322  0.251-   2 1.10
  27  0.151  0.822  0.251-   3 1.10
  28  0.658  0.822  0.260-   4 1.10
  29  0.151  0.322  0.751-   5 1.10
  30  0.658  0.322  0.760-   6 1.10
  31  0.158  0.822  0.760-   7 1.10
  32  0.651  0.822  0.751-   8 1.10
  33  0.158  0.177  0.260-   1 1.10
  34  0.651  0.177  0.251-   2 1.10
  35  0.151  0.677  0.251-   3 1.10
  36  0.658  0.677  0.260-   4 1.10
  37  0.151  0.177  0.751-   5 1.10
  38  0.658  0.177  0.760-   6 1.10
  39  0.158  0.677  0.760-   7 1.10
  40  0.651  0.677  0.751-   8 1.10
  41  0.352  0.318  0.234-   9 1.05
  42  0.844  0.318  0.268-  10 1.05
  43  0.344  0.818  0.268-  11 1.05
  44  0.852  0.818  0.234-  12 1.05
  45  0.344  0.318  0.768-  13 1.05
  46  0.852  0.318  0.734-  14 1.05
  47  0.352  0.818  0.734-  15 1.05
  48  0.844  0.818  0.768-  16 1.05
  49  0.352  0.182  0.234-   9 1.05
  50  0.844  0.182  0.268-  10 1.05
  51  0.344  0.682  0.268-  11 1.05
  52  0.852  0.682  0.234-  12 1.05
  53  0.344  0.182  0.768-  13 1.05
  54  0.852  0.182  0.734-  14 1.05
  55  0.352  0.682  0.734-  15 1.05
  56  0.844  0.682  0.768-  16 1.05
  57  0.320  0.250  0.343-   9 1.06
  58  0.787  0.250  0.368-  10 1.04
  59  0.287  0.750  0.368-  11 1.04
  60  0.820  0.750  0.343-  12 1.06
  61  0.287  0.250  0.868-  13 1.04
  62  0.820  0.250  0.843-  14 1.06
  63  0.320  0.750  0.843-  15 1.06
  64  0.787  0.750  0.868-  16 1.04
  65  0.472  0.498  0.489-  90 3.10  87 3.15  85 3.17  77 3.17  73 3.22  89 3.27
  66  0.972  0.502  0.489-  89 3.10  86 3.15  88 3.17  78 3.17  74 3.22  90 3.27
  67  0.472  0.002  0.489-  92 3.10  87 3.15  85 3.17  79 3.17  75 3.22  91 3.27
  68  0.972  0.998  0.489-  91 3.10  86 3.15  88 3.17  80 3.17  76 3.22  92 3.27
  69  0.472  0.502  0.989-  94 3.10  81 3.15  83 3.17  73 3.17  77 3.22  93 3.27
  70  0.972  0.498  0.989-  93 3.10  84 3.15  82 3.17  74 3.17  78 3.22  94 3.27
  71  0.472  0.998  0.989-  96 3.10  81 3.15  83 3.17  75 3.17  79 3.22  95 3.27
  72  0.972  0.002  0.989-  95 3.10  84 3.15  82 3.17  76 3.17  80 3.22  96 3.27
  73  0.455  0.503  0.238-  69 3.17  65 3.22
  74  0.955  0.497  0.238-  70 3.17  66 3.22
  75  0.455  0.997  0.238-  71 3.17  67 3.22
  76  0.955  0.003  0.238-  72 3.17  68 3.22
  77  0.455  0.497  0.738-  65 3.17  69 3.22
  78  0.955  0.503  0.738-  66 3.17  70 3.22
  79  0.455  0.003  0.738-  67 3.17  71 3.22
  80  0.955  0.997  0.738-  68 3.17  72 3.22
  81  0.475  0.250  0.011-  71 3.15  69 3.15
  82  0.925  0.250  0.013-  72 3.17  70 3.17
  83  0.425  0.750  0.013-  69 3.17  71 3.17
  84  0.975  0.750  0.011-  70 3.15  72 3.15
  85  0.425  0.250  0.513-  67 3.17  65 3.17
  86  0.975  0.250  0.511-  68 3.15  66 3.15
  87  0.475  0.750  0.511-  65 3.15  67 3.15
  88  0.925  0.750  0.513-  66 3.17  68 3.17
  89  0.216  0.529  0.461-  66 3.10  65 3.27
  90  0.716  0.471  0.461-  65 3.10  66 3.27
  91  0.216  0.971  0.461-  68 3.10  67 3.27
  92  0.716  0.029  0.461-  67 3.10  68 3.27
  93  0.216  0.471  0.961-  70 3.10  69 3.27
  94  0.716  0.529  0.961-  69 3.10  70 3.27
  95  0.216  0.029  0.961-  72 3.10  71 3.27
  96  0.716  0.971  0.961-  71 3.10  72 3.27
 
  LATTYP: Found a triclinic cell.
 ALAT       =    17.8238589327
 B/A-ratio  =     0.6989248630
 C/A-ratio  =     1.0156975818
 COS(alpha) =     0.0001355172
 COS(beta)  =     0.5146378593
 COS(gamma) =     0.6988877578
  
  Lattice vectors:
  
 A1 = (  -0.1406063366, -12.4576271275, -12.7466742118)
 A2 = (  -0.0011956322, -12.4575380825,   0.0007464135)
 A3 = ( -12.7162481321,  -0.0020049566, -12.8856194186)


Analysis of symmetry for initial positions (statically):
=====================================================================
 Subroutine PRICEL returns following result:
 
  LATTYP: Found a triclinic cell.
 ALAT       =     8.8524544993
 B/A-ratio  =     1.4072411401
 C/A-ratio  =     1.0225215175
 COS(alpha) =     0.0001355172
 COS(beta)  =     0.5046167836
 COS(gamma) =     0.7037964938
  
  Lattice vectors:
  
 A1 = (   6.2890165300,   6.2297269971,   0.0687261899)
 A2 = (   0.0011956322,  12.4575380825,  -0.0007464135)
 A3 = (   6.3581240661,   0.0010024783,   6.4428097093)
 
   4 primitive cells build up your supercell.
 

 Routine SETGRP: Setting up the symmetry group for a 
 triclinic supercell.


 Subroutine GETGRP returns: Found  1 space group operations
 (whereof  1 operations were pure point group operations)
 out of a pool of  2 trial point group operations.


The static configuration has the point symmetry C_1 .


Analysis of symmetry for dynamics (positions and initial velocities):
=====================================================================
 Subroutine PRICEL returns following result:
 
  LATTYP: Found a triclinic cell.
 ALAT       =     8.8524544993
 B/A-ratio  =     1.4072411401
 C/A-ratio  =     1.0225215175
 COS(alpha) =     0.0001355172
 COS(beta)  =     0.5046167836
 COS(gamma) =     0.7037964938
  
  Lattice vectors:
  
 A1 = (   6.2890165300,   6.2297269971,   0.0687261899)
 A2 = (   0.0011956322,  12.4575380825,  -0.0007464135)
 A3 = (   6.3581240661,   0.0010024783,   6.4428097093)
 
   4 primitive cells build up your supercell.
 

 Routine SETGRP: Setting up the symmetry group for a 
 triclinic supercell.


 Subroutine GETGRP returns: Found  1 space group operations
 (whereof  1 operations were pure point group operations)
 out of a pool of  2 trial point group operations.


The dynamic configuration has the point symmetry C_1 .


 Subroutine INISYM returns: Found  1 space group operations
 (whereof  1 operations are pure point group operations),
 and found     4 'primitive' translations

 
 
 KPOINTS: Automatic 3x3x3                         

Automatic generation of k-mesh.
Space group operators:
 irot       det(A)        alpha          n_x          n_y          n_z        tau_x        tau_y        tau_z
    1     1.000000     0.000000     1.000000     0.000000     0.000000     0.000000     0.000000     0.000000
 
 Subroutine IBZKPT returns following result:
 ===========================================
 
 Found     14 irreducible k-points:
 
 Following reciprocal coordinates:
            Coordinates               Weight
  0.000000  0.000000  0.000000      1.000000
  0.333333 -0.000000 -0.000000      2.000000
  0.000000  0.333333 -0.000000      2.000000
  0.333333  0.333333  0.000000      2.000000
 -0.333333  0.333333  0.000000      2.000000
  0.000000  0.000000  0.333333      2.000000
  0.333333  0.000000  0.333333      2.000000
 -0.333333  0.000000  0.333333      2.000000
  0.000000  0.333333  0.333333      2.000000
  0.333333  0.333333  0.333333      2.000000
 -0.333333  0.333333  0.333333      2.000000
  0.000000 -0.333333  0.333333      2.000000
  0.333333 -0.333333  0.333333      2.000000
 -0.333333 -0.333333  0.333333      2.000000
 
 Following cartesian coordinates:
            Coordinates               Weight
  0.000000  0.000000  0.000000      1.000000
  0.026507 -0.000003 -0.000290      2.000000
 -0.000004  0.026758 -0.000000      2.000000
  0.026503  0.026755 -0.000290      2.000000
 -0.026511  0.026760  0.000290      2.000000
 -0.000287  0.000002  0.026152      2.000000
  0.026220 -0.000001  0.025862      2.000000
 -0.026794  0.000004  0.026442      2.000000
 -0.000291  0.026759  0.026152      2.000000
  0.026215  0.026757  0.025862      2.000000
 -0.026798  0.026762  0.026442      2.000000
 -0.000283 -0.026756  0.026152      2.000000
  0.026224 -0.026759  0.025862      2.000000
 -0.026790 -0.026753  0.026442      2.000000
 


--------------------------------------------------------------------------------------------------------




 Dimension of arrays:
   k-points           NKPTS =     14   k-points in BZ     NKDIM =     14   number of bands    NBANDS=    256
   number of dos      NEDOS =    301   number of ions     NIONS =     96
   non local maximal  LDIM  =      6   non local SUM 2l+1 LMDIM =     18
   total plane-waves  NPLWV = ******
   max r-space proj   IRMAX =      1   max aug-charges    IRDMAX= 314103
   dimension x,y,z NGX =   112 NGY =  108 NGZ =  112
   dimension x,y,z NGXF=   224 NGYF=  216 NGZF=  224
   support grid    NGXF=   448 NGYF=  432 NGZF=  448
   ions per type =               8   8  48   8  24
 NGX,Y,Z   is equivalent  to a cutoff of  14.80, 14.41, 14.61 a.u.
 NGXF,Y,Z  is equivalent  to a cutoff of  29.61, 28.83, 29.21 a.u.


 I would recommend the setting:
   dimension x,y,z NGX =   109 NGY =  107 NGZ =  110
 SYSTEM =  MAPbI3-Cubic                            
 POSCAR =  C N H Pb I                              

 Startparameter for this run:
   NWRITE =      2    write-flag & timer
   PREC   = accura    normal or accurate (medium, high low for compatibility)
   ISTART =      0    job   : 0-new  1-cont  2-samecut
   ICHARG =      2    charge: 1-file 2-atom 10-const
   ISPIN  =      1    spin polarized calculation?
   LNONCOLLINEAR =      F non collinear calculations
   LSORBIT =      F    spin-orbit coupling
   INIWAV =      1    electr: 0-lowe 1-rand  2-diag
   LASPH  =      F    aspherical Exc in radial PAW
   METAGGA=      F    non-selfconsistent MetaGGA calc.

 Electronic Relaxation 1
   ENCUT  =  700.0 eV  51.45 Ry    7.17 a.u.  27.13 26.87 27.50*2*pi/ulx,y,z
   ENINI  =  700.0     initial cutoff
   ENAUG  =  644.9 eV  augmentation charge cutoff
   NELM   =     60;   NELMIN=  2; NELMDL= -5     # of ELM steps 
   EDIFF  = 0.1E-07   stopping-criterion for ELM
   LREAL  =      F    real-space projection
   NLSPLINE    = F    spline interpolate recip. space projectors
   LCOMPAT=      F    compatible to vasp.4.4
   GGA_COMPAT  = T    GGA compatible to vasp.4.4-vasp.4.6
   LMAXPAW     = -100 max onsite density
   LMAXMIX     =    2 max onsite mixed and CHGCAR
   VOSKOWN=      0    Vosko Wilk Nusair interpolation
   ROPT   =    0.00000   0.00000   0.00000   0.00000
   ROPT   =    0.00000
 Ionic relaxation
   EDIFFG = 0.1E-06   stopping-criterion for IOM
   NSW    =      0    number of steps for IOM
   NBLOCK =      1;   KBLOCK =      1    inner block; outer block 
   IBRION =     -1    ionic relax: 0-MD 1-quasi-New 2-CG
   NFREE  =      0    steps in history (QN), initial steepest desc. (CG)
   ISIF   =      2    stress and relaxation
   IWAVPR =     10    prediction:  0-non 1-charg 2-wave 3-comb
   ISYM   =      2    0-nonsym 1-usesym 2-fastsym
   LCORR  =      T    Harris-Foulkes like correction to forces

   POTIM  = 0.5000    time-step for ionic-motion
   TEIN   =    0.0    initial temperature
   TEBEG  =    0.0;   TEEND  =   0.0 temperature during run
   SMASS  =  -3.00    Nose mass-parameter (am)
   estimated Nose-frequenzy (Omega)   =  0.10E-29 period in steps =****** mass=  -0.362E-26a.u.
   SCALEE = 1.0000    scale energy and forces
   NPACO  =    256;   APACO  = 16.0  distance and # of slots for P.C.
   PSTRESS=    0.0 pullay stress

  Mass of Ions in am
   POMASS =  12.01 14.00  1.00207.20126.90
  Ionic Valenz
   ZVAL   =   4.00  5.00  1.00 14.00  7.00
  Atomic Wigner-Seitz radii
   RWIGS  =  -1.00 -1.00 -1.00 -1.00 -1.00
  virtual crystal weights 
   VCA    =   1.00  1.00  1.00  1.00  1.00
   NELECT =     400.0000    total number of electrons
   NUPDOWN=      -1.0000    fix difference up-down

 DOS related values:
   EMIN   =  10.00;   EMAX   =-10.00  energy-range for DOS
   EFERMI =   0.00
   ISMEAR =     0;   SIGMA  =   0.00  broadening in eV -4-tet -1-fermi 0-gaus

 Electronic relaxation 2 (details)
   IALGO  =     38    algorithm
   LDIAG  =      T    sub-space diagonalisation (order eigenvalues)
   LSUBROT=      F    optimize rotation matrix (better conditioning)
   TURBO    =      0    0=normal 1=particle mesh
   IRESTART =      0    0=no restart 2=restart with 2 vectors
   NREBOOT  =      0    no. of reboots
   NMIN     =      0    reboot dimension
   EREF     =   0.00    reference energy to select bands
   IMIX   =      4    mixing-type and parameters
     AMIX     =   0.40;   BMIX     =  1.00
     AMIX_MAG =   1.60;   BMIX_MAG =  1.00
     AMIN     =   0.10
     WC   =   100.;   INIMIX=   1;  MIXPRE=   1;  MAXMIX= -45

 Intra band minimization:
   WEIMIN = 0.0000     energy-eigenvalue tresh-hold
   EBREAK =  0.98E-11  absolut break condition
   DEPER  =   0.30     relativ break condition  

   TIME   =   0.40     timestep for ELM

  volume/ion in A,a.u.               =      20.80       140.38
  Fermi-wavevector in a.u.,A,eV,Ry     =   0.957863  1.810099 12.483376  0.917502
  Thomas-Fermi vector in A             =   2.086919
 
 Write flags
   LWAVE  =      F    write WAVECAR
   LCHARG =      F    write CHGCAR
   LVTOT  =      F    write LOCPOT, total local potential
   LVHAR  =      F    write LOCPOT, Hartree potential only
   LELF   =      F    write electronic localiz. function (ELF)
   LORBIT =      0    0 simple, 1 ext, 2 COOP (PROOUT)


 Dipole corrections
   LMONO  =      F    monopole corrections only (constant potential shift)
   LDIPOL =      F    correct potential (dipole corrections)
   IDIPOL =      0    1-x, 2-y, 3-z, 4-all directions 
   EPSILON=  1.0000000 bulk dielectric constant

 Exchange correlation treatment:
   GGA     =    PS    GGA type
   LEXCH   =    14    internal setting for exchange type
   VOSKOWN=      0    Vosko Wilk Nusair interpolation
   LHFCALC =     F    Hartree Fock is set to
   LHFONE  =     F    Hartree Fock one center treatment
   AEXX    =    0.0000 exact exchange contribution

 Linear response parameters
   LEPSILON=     F    determine dielectric tensor
   LRPA    =     F    only Hartree local field effects (RPA)
   LNABLA  =     F    use nabla operator in PAW spheres
   LVEL    =     F    velocity operator in full k-point grid
   LINTERFAST=   F  fast interpolation
   KINTER  =     0    interpolate to denser k-point grid
   CSHIFT  =0.1000    complex shift for real part using Kramers Kronig
   OMEGAMAX=  -1.0    maximum frequency
   DEG_THRESHOLD= 0.2000000E-02 threshold for treating states as degnerate
   RTIME   =    0.100 relaxation time in fs

 Orbital magnetization related:
   ORBITALMAG=     F  switch on orbital magnetization
   LCHIMAG   =     F  perturbation theory with respect to B field
   DQ        =  0.001000  dq finite difference perturbation B field



--------------------------------------------------------------------------------------------------------


 Static calculation
 charge density and potential will be updated during run
 non-spin polarized calculation
 Variant of blocked Davidson
 Davidson routine will perform the subspace rotation
 perform sub-space diagonalisation
    after iterative eigenvector-optimisation
 modified Broyden-mixing scheme, WC =      100.0
 initial mixing is a Kerker type mixing with AMIX =  0.4000 and BMIX =      1.0000
 Hartree-type preconditioning will be used
 using additional bands           56
 reciprocal scheme for non local part
 use partial core corrections
 calculate Harris-corrections to forces 
   (improved forces if not selfconsistent)
 use gradient corrections 
 use of overlap-Matrix (Vanderbilt PP)
 Gauss-broadening in eV      SIGMA  =   0.00


--------------------------------------------------------------------------------------------------------


  energy-cutoff  :      700.00
  volume of cell :     1996.98
      direct lattice vectors                 reciprocal lattice vectors
    12.576837428  0.001915912  0.138198793     0.079520802 -0.000007684 -0.000869670
     0.001195632 12.457538083 -0.000746413    -0.000012224  0.080272684 -0.000000427
     0.139410704  0.000089045 12.747420625    -0.000862111  0.000004784  0.078456671

  length of vectors
    12.577596840 12.457538162 12.748182927     0.079525558  0.080272685  0.078461408


 
 k-points in units of 2pi/SCALE and weight: Automatic 3x3x3                         
   0.00000000  0.00000000  0.00000000       0.037
   0.02650693 -0.00000256 -0.00028989       0.074
  -0.00000407  0.02675756 -0.00000014       0.074
   0.02650286  0.02675500 -0.00029003       0.074
  -0.02651101  0.02676012  0.00028975       0.074
  -0.00028737  0.00000159  0.02615222       0.074
   0.02621956 -0.00000097  0.02586233       0.074
  -0.02679430  0.00000416  0.02644211       0.074
  -0.00029144  0.02675916  0.02615208       0.074
   0.02621549  0.02675659  0.02586219       0.074
  -0.02679838  0.02676172  0.02644197       0.074
  -0.00028330 -0.02675597  0.02615237       0.074
   0.02622364 -0.02675853  0.02586248       0.074
  -0.02679023 -0.02675341  0.02644226       0.074
 
 k-points in reciprocal lattice and weights: Automatic 3x3x3                         
   0.00000000  0.00000000  0.00000000       0.037
   0.33333333 -0.00000000 -0.00000000       0.074
   0.00000000  0.33333333 -0.00000000       0.074
   0.33333333  0.33333333  0.00000000       0.074
  -0.33333333  0.33333333  0.00000000       0.074
   0.00000000  0.00000000  0.33333333       0.074
   0.33333333  0.00000000  0.33333333       0.074
  -0.33333333  0.00000000  0.33333333       0.074
   0.00000000  0.33333333  0.33333333       0.074
   0.33333333  0.33333333  0.33333333       0.074
  -0.33333333  0.33333333  0.33333333       0.074
   0.00000000 -0.33333333  0.33333333       0.074
   0.33333333 -0.33333333  0.33333333       0.074
  -0.33333333 -0.33333333  0.33333333       0.074
 
 position of ions in fractional coordinates (direct lattice) 
   0.19765673  0.24985609  0.22861587
   0.69633153  0.24996046  0.22921484
   0.19633153  0.74996046  0.22921484
   0.69765673  0.74985609  0.22861587
   0.19633153  0.24996046  0.72921484
   0.69765673  0.24985609  0.72861587
   0.19765673  0.74985609  0.72861587
   0.69633153  0.74996046  0.72921484
   0.31066372  0.24997012  0.26129877
   0.79841072  0.25003717  0.28646982
   0.29841072  0.75003717  0.28646982
   0.81066372  0.74997012  0.26129877
   0.29841072  0.25003717  0.78646982
   0.81066372  0.24997012  0.76129877
   0.31066372  0.74997012  0.76129877
   0.79841072  0.75003717  0.78646982
   0.19557101  0.24976917  0.14186644
   0.71457932  0.24987302  0.14391081
   0.21457932  0.74987302  0.14391081
   0.69557101  0.74976917  0.14186644
   0.21457932  0.24987302  0.64391081
   0.69557101  0.24976917  0.64186644
   0.19557101  0.74976917  0.64186644
   0.71457932  0.74987302  0.64391081
   0.15780406  0.32222491  0.25983931
   0.65087155  0.32247947  0.25119133
   0.15087155  0.82247947  0.25119133
   0.65780406  0.82222491  0.25983931
   0.15087155  0.32247947  0.75119133
   0.65780406  0.32222491  0.75983931
   0.15780406  0.82222491  0.75983931
   0.65087155  0.82247947  0.75119133
   0.15795308  0.17748137  0.25996423
   0.65093259  0.17747077  0.25133719
   0.15093259  0.67747077  0.25133719
   0.65795308  0.67748137  0.25996423
   0.15093259  0.17747077  0.75133719
   0.65795308  0.17748137  0.75996423
   0.15795308  0.67748137  0.75996423
   0.65093259  0.67747077  0.75133719
   0.35183586  0.31777541  0.23357566
   0.84443329  0.31797316  0.26793732
   0.34443329  0.81797316  0.26793732
   0.85183586  0.81777541  0.23357566
   0.34443329  0.31797316  0.76793732
   0.85183586  0.31777541  0.73357566
   0.35183586  0.81777541  0.73357566
   0.84443329  0.81797316  0.76793732
   0.35195900  0.18217347  0.23366406
   0.84445160  0.18203631  0.26811774
   0.34445160  0.68203631  0.26811774
   0.85195900  0.68217347  0.23366406
   0.34445160  0.18203631  0.76811774
   0.85195900  0.18217347  0.73366406
   0.35195900  0.68217347  0.73366406
   0.84445160  0.68203631  0.76811774
   0.31974821  0.25002450  0.34340664
   0.78659193  0.25016254  0.36781185
   0.28659193  0.75016254  0.36781185
   0.81974821  0.75002450  0.34340664
   0.28659193  0.25016254  0.86781185
   0.81974821  0.25002450  0.84340664
   0.31974821  0.75002450  0.84340664
   0.78659193  0.75016254  0.86781185
   0.47243860  0.49835262  0.48880709
   0.97244496  0.50162697  0.48881580
   0.47244496  0.00162697  0.48881580
   0.97243860  0.99835262  0.48880709
   0.47244496  0.50162697  0.98881580
   0.97243860  0.49835262  0.98880709
   0.47243860  0.99835262  0.98880709
   0.97244496  0.00162697  0.98881580
   0.45470545  0.50338010  0.23757468
   0.95478190  0.49660200  0.23757081
   0.45478190  0.99660200  0.23757081
   0.95470545  0.00338010  0.23757468
   0.45478190  0.49660200  0.73757081
   0.95470545  0.50338010  0.73757468
   0.45470545  0.00338010  0.73757468
   0.95478190  0.99660200  0.73757081
   0.47476378  0.24997297  0.01070959
   0.92450710  0.24998505  0.01295485
   0.42450710  0.74998505  0.01295485
   0.97476378  0.74997297  0.01070959
   0.42450710  0.24998505  0.51295485
   0.97476378  0.24997297  0.51070959
   0.47476378  0.74997297  0.51070959
   0.92450710  0.74998505  0.51295485
   0.21616521  0.52882231  0.46126980
   0.71617767  0.47117257  0.46120961
   0.21617767  0.97117257  0.46120961
   0.71616521  0.02882231  0.46126980
   0.21617767  0.47117257  0.96120961
   0.71616521  0.52882231  0.96126980
   0.21616521  0.02882231  0.96126980
   0.71617767  0.97117257  0.96120961
 
 position of ions in cartesian coordinates  (Angst):
   2.51806682  3.11299076  2.94139204
   8.78990235  3.11524652  3.01794361
   2.50208145  9.34305760  2.94847101
   8.80708335  9.34271776  3.01011823
   2.57118899  3.11433309  9.32255453
   8.87619088  3.11399324  9.38420175
   2.58836999  9.34180432  9.31472914
   8.86020552  9.34406008  9.39128072
   3.94389376  3.11463070  3.37363210
  10.08171777  3.11640271  3.76190410
   3.79389687  9.34421380  3.69243149
  10.23291029  9.34435770  3.44235829
   3.86300441  3.11548928 10.06651501
  10.30201783  3.11563318  9.81644181
   4.01419693  9.34344426  9.74696921
  10.15202094  9.34521628 10.13524120
   2.47974118  3.11189627  1.83527239
   9.00750941  3.11418458  1.93305918
   2.71968851  9.34199567  1.86358658
   8.76875771  9.34162327  1.90399858
   2.78879605  3.11327115  8.23767010
   8.83786524  3.11289875  8.27808210
   2.55004435  9.34070984  8.20860950
   9.07781258  9.34299815  8.30639629
   2.02128564  4.01445452  3.33384877
   8.22131005  4.01856962  3.29175051
   1.93348915 10.24638070  3.22227791
   8.31030217 10.24418152  3.40257496
   2.00259669  4.01765619  9.59636143
   8.37940971  4.01545700  9.77665848
   2.09158881 10.24326808  9.70718587
   8.29161322 10.24738318  9.66508762
   2.02300421  2.21130675  3.33556981
   8.22192461  2.21211843  3.29372645
   1.93410371  8.43992951  3.22425385
   8.31202074  8.44103374  3.40429600
   2.00321124  2.21120499  9.59833737
   8.38112828  2.21230922  9.77837952
   2.09330738  8.44012031  9.70890692
   8.29222777  8.44093199  9.66706356
   4.45792534  3.95939414  3.02587334
  10.65803374  3.96280443  3.53197201
   4.37021284 10.19061552  3.46249941
  10.74694187 10.18912114  3.09459953
   4.43932038  3.96189100  9.83658293
  10.81604940  3.96039662  9.46868305
   4.52822851 10.18820771  9.39921045
  10.72833691 10.19161800  9.90530912
   4.45932427  2.27012804  3.02711841
  10.65812657  2.26936600  3.53437590
   4.37030567  8.49717708  3.46490330
  10.74834080  8.49985504  3.09584460
   4.43941321  2.26845256  9.83898682
  10.81744833  2.27113052  9.46992812
   4.52962743  8.49894161  9.40045552
  10.72842974  8.49817956  9.90771301
   4.06959482  3.11533294  4.42155109
   9.94441485  3.11794918  4.79717168
   3.65659395  9.34576027  4.72769908
  10.35861135  9.34505994  4.49027728
   3.72570149  3.11703575 11.10178260
  10.42771888  3.11633542 10.86436080
   4.13989798  9.34414650 10.79488819
  10.01471802  9.34676275 11.17050879
   6.01052421  6.20919540  6.29594808
  12.29902803  6.25094374  6.36515693
   6.01001150  0.02121675  6.29643074
  12.29954074 12.43892240  6.36467427
   6.08031466  6.25003031 12.66976784
  12.36864828  6.21019788 12.73875779
   6.08082738 12.43800896 12.66928519
  12.36813556  0.02221922 12.73924045
   5.75247884  6.27176906  3.09092838
  12.04185038  6.18828878  3.15999402
   5.75402948 12.41609987  3.09052141
  12.04029973  0.04395798  3.16040098
   5.82313702  6.18737535  9.46460493
  12.11060290  6.27277154  9.53373808
   5.82158637  0.04304454  9.46501189
  12.11215355 12.41710235  9.53333112
   5.97281879  3.11495841  0.20194479
  11.62948042  3.11597067  0.29272010
   5.34165952  9.34378175  0.22324749
  12.26183532  9.34468541  0.27067098
   5.41076705  3.11505723  6.59733101
  12.33094286  3.11596089  6.64475450
   6.04312196  9.34377197  6.57528189
  11.69978358  9.34478423  6.66605720
   2.78361294  6.58827926  5.90947916
   9.07211098  5.87106337  5.97785606
   2.78429008 12.09887446  5.90838346
   9.07143384  0.36046818  5.97895177
   2.85339762  5.87014994 12.28246698
   9.14173701  6.58928174 12.35228887
   2.85272048  0.35955474 12.28356268
   9.14241415 12.09987694 12.35119317
 


--------------------------------------------------------------------------------------------------------


 k-point  1 :   0.0000 0.0000 0.0000  plane waves:   84007
 k-point  2 :   0.3333-0.0000-0.0000  plane waves:   84003
 k-point  3 :   0.0000 0.3333-0.0000  plane waves:   83995
 k-point  4 :   0.3333 0.3333 0.0000  plane waves:   84018
 k-point  5 :  -0.3333 0.3333 0.0000  plane waves:   84019
 k-point  6 :   0.0000 0.0000 0.3333  plane waves:   83960
 k-point  7 :   0.3333 0.0000 0.3333  plane waves:   83937
 k-point  8 :  -0.3333 0.0000 0.3333  plane waves:   83982
 k-point  9 :   0.0000 0.3333 0.3333  plane waves:   83984
 k-point 10 :   0.3333 0.3333 0.3333  plane waves:   84012
 k-point 11 :  -0.3333 0.3333 0.3333  plane waves:   83970
 k-point 12 :   0.0000-0.3333 0.3333  plane waves:   83977
 k-point 13 :   0.3333-0.3333 0.3333  plane waves:   84013
 k-point 14 :  -0.3333-0.3333 0.3333  plane waves:   83973

 maximum and minimum number of plane-waves per node :     28039    27934

 maximum number of plane-waves:     84019
 maximum index in each direction: 
   IXMAX=   27   IYMAX=   27   IZMAX=   27
   IXMIN=  -27   IYMIN=  -27   IZMIN=  -27

 NGX is ok and might be reduce to 110
 WARNING: aliasing errors must be expected set NGY to 110 to avoid them
 NGZ is ok and might be reduce to 110
 aliasing errors are usually negligible using standard VASP settings
 and one can safely disregard these warnings

 parallel 3D FFT for wavefunctions:
    minimum data exchange during FFTs selected (reduces bandwidth)
 parallel 3D FFT for charge:
    minimum data exchange during FFTs selected (reduces bandwidth)


 total amount of memory used by VASP on root node   697522. kBytes
========================================================================

   base      :      30000. kBytes
   nonl-proj :     325712. kBytes
   fftplans  :      80881. kBytes
   grid      :      57435. kBytes
   one-center:        497. kBytes
   wavefun   :     202997. kBytes
 
     INWAV:  cpu time    0.0000: real time    0.0000
 Broyden mixing: mesh for mixing (old mesh)
   NGX = 55   NGY = 53   NGZ = 55
  (NGX  =224   NGY  =216   NGZ  =224)
  gives a total of 160325 points

 initial charge density was supplied:
 charge density of overlapping atoms calculated
 number of electron     400.0000000 magnetization 
 keeping initial charge density in first step


--------------------------------------------------------------------------------------------------------


 Maximum index for augmentation-charges        14902 (set IRDMAX)


--------------------------------------------------------------------------------------------------------


 First call to EWALD:  gamma=   0.141
 Maximum number of real-space cells 3x 3x 3
 Maximum number of reciprocal cells 3x 3x 3

 FEWALD executed in parallel
    FEWALD:  cpu time    0.0040: real time    0.0045


----------------------------------------- Iteration    1(   1)  ---------------------------------------


    POTLOK:  cpu time    0.4480: real time    0.4475
    SETDIJ:  cpu time    0.7560: real time    0.7562
     EDDAV:  cpu time  248.6155: real time  248.7729
       DOS:  cpu time    0.0000: real time    0.0006
    --------------------------------------------
      LOOP:  cpu time  249.8236: real time  249.9983

 eigenvalue-minimisations  :  7176
 total energy-change (2. order) : 0.3597616E+04  (-0.1894332E+05)
 number of electron     400.0000000 magnetization 
 augmentation part      400.0000000 magnetization 

 Free energy of the ion-electron system (eV)
  ---------------------------------------------------
  alpha Z        PSCENC =       370.05370877
  Ewald energy   TEWEN  =    -15549.63203132
  -Hartree energ DENC   =     -8105.68546850
  -exchange      EXHF   =         0.00000000
  -V(xc)+E(xc)   XCENC  =       389.57695555
  PAW double counting   =     20601.23165652   -19855.90553853
  entropy T*S    EENTRO =        -0.00000000
  eigenvalues    EBANDS =       998.96996969
  atomic energy  EATOM  =     24749.00668030
  Solvation  Ediel_sol  =         0.00000000
  ---------------------------------------------------
  free energy    TOTEN  =      3597.61593247 eV

  energy without entropy =     3597.61593247  energy(sigma->0) =     3597.61593247


--------------------------------------------------------------------------------------------------------




----------------------------------------- Iteration    1(   2)  ---------------------------------------


     EDDAV:  cpu time  269.6048: real time  269.7735
       DOS:  cpu time    0.0000: real time    0.0012
    --------------------------------------------
      LOOP:  cpu time  269.6128: real time  269.7805

 eigenvalue-minimisations  :  7936
 total energy-change (2. order) :-0.3393243E+04  (-0.3195169E+04)
 number of electron     400.0000000 magnetization 
 augmentation part      400.0000000 magnetization 

 Free energy of the ion-electron system (eV)
  ---------------------------------------------------
  alpha Z        PSCENC =       370.05370877
  Ewald energy   TEWEN  =    -15549.63203132
  -Hartree energ DENC   =     -8105.68546850
  -exchange      EXHF   =         0.00000000
  -V(xc)+E(xc)   XCENC  =       389.57695555
  PAW double counting   =     20601.23165652   -19855.90553853
  entropy T*S    EENTRO =        -0.00004989
  eigenvalues    EBANDS =     -2394.27276534
  atomic energy  EATOM  =     24749.00668030
  Solvation  Ediel_sol  =         0.00000000
  ---------------------------------------------------
  free energy    TOTEN  =       204.37314755 eV

  energy without entropy =      204.37319744  energy(sigma->0) =      204.37317250


--------------------------------------------------------------------------------------------------------




----------------------------------------- Iteration    1(   3)  ---------------------------------------


     EDDAV:  cpu time  309.7914: real time  309.9828
       DOS:  cpu time    0.0000: real time    0.0004
    --------------------------------------------
      LOOP:  cpu time  309.7914: real time  310.0072

 eigenvalue-minimisations  :  9456
 total energy-change (2. order) :-0.6017007E+03  (-0.5921896E+03)
 number of electron     400.0000000 magnetization 
 augmentation part      400.0000000 magnetization 

 Free energy of the ion-electron system (eV)
  ---------------------------------------------------
  alpha Z        PSCENC =       370.05370877
  Ewald energy   TEWEN  =    -15549.63203132
  -Hartree energ DENC   =     -8105.68546850
  -exchange      EXHF   =         0.00000000
  -V(xc)+E(xc)   XCENC  =       389.57695555
  PAW double counting   =     20601.23165652   -19855.90553853
  entropy T*S    EENTRO =         0.00000000
  eigenvalues    EBANDS =     -2995.97346805
  atomic energy  EATOM  =     24749.00668030
  Solvation  Ediel_sol  =         0.00000000
  ---------------------------------------------------
  free energy    TOTEN  =      -397.32750527 eV

  energy without entropy =     -397.32750527  energy(sigma->0) =     -397.32750527


--------------------------------------------------------------------------------------------------------




----------------------------------------- Iteration    1(   4)  ---------------------------------------


     EDDAV:  cpu time  315.8637: real time  316.0626
       DOS:  cpu time    0.0000: real time    0.0004
    --------------------------------------------
      LOOP:  cpu time  315.8677: real time  316.3441

 eigenvalue-minimisations  :  9688
 total energy-change (2. order) :-0.4104539E+02  (-0.4086582E+02)
 number of electron     400.0000000 magnetization 
 augmentation part      400.0000000 magnetization 

 Free energy of the ion-electron system (eV)
  ---------------------------------------------------
  alpha Z        PSCENC =       370.05370877
  Ewald energy   TEWEN  =    -15549.63203132
  -Hartree energ DENC   =     -8105.68546850
  -exchange      EXHF   =         0.00000000
  -V(xc)+E(xc)   XCENC  =       389.57695555
  PAW double counting   =     20601.23165652   -19855.90553853
  entropy T*S    EENTRO =         0.00000000
  eigenvalues    EBANDS =     -3037.01886302
  atomic energy  EATOM  =     24749.00668030
  Solvation  Ediel_sol  =         0.00000000
  ---------------------------------------------------
  free energy    TOTEN  =      -438.37290024 eV

  energy without entropy =     -438.37290024  energy(sigma->0) =     -438.37290024


--------------------------------------------------------------------------------------------------------




----------------------------------------- Iteration    1(   5)  ---------------------------------------


     EDDAV:  cpu time  318.8079: real time  319.0054
       DOS:  cpu time    0.0040: real time    0.0004
    CHARGE:  cpu time    9.2046: real time    9.2107
    MIXING:  cpu time    0.0120: real time    0.0131
    --------------------------------------------
      LOOP:  cpu time  328.0285: real time  328.2600

 eigenvalue-minimisations  :  9800
 total energy-change (2. order) :-0.1538150E+01  (-0.1535803E+01)
 number of electron     400.0000000 magnetization 
 augmentation part        7.5628499 magnetization 

 Broyden mixing:
  rms(total) = 0.29432E+01    rms(broyden)= 0.29431E+01
  rms(prec ) = 0.34936E+01
  weight for this iteration     100.00

 Free energy of the ion-electron system (eV)
  ---------------------------------------------------
  alpha Z        PSCENC =       370.05370877
  Ewald energy   TEWEN  =    -15549.63203132
  -Hartree energ DENC   =     -8105.68546850
  -exchange      EXHF   =         0.00000000
  -V(xc)+E(xc)   XCENC  =       389.57695555
  PAW double counting   =     20601.23165652   -19855.90553853
  entropy T*S    EENTRO =         0.00000000
  eigenvalues    EBANDS =     -3038.55701293
  atomic energy  EATOM  =     24749.00668030
  Solvation  Ediel_sol  =         0.00000000
  ---------------------------------------------------
  free energy    TOTEN  =      -439.91105015 eV

  energy without entropy =     -439.91105015  energy(sigma->0) =     -439.91105015


--------------------------------------------------------------------------------------------------------




----------------------------------------- Iteration    1(   6)  ---------------------------------------


    POTLOK:  cpu time    0.4440: real time    0.4422
    SETDIJ:  cpu time    0.7560: real time    0.7577
     EDDAV:  cpu time  315.0237: real time  315.2191
       DOS:  cpu time    0.0000: real time    0.0006
    CHARGE:  cpu time    9.2046: real time    9.2100
    MIXING:  cpu time    0.0120: real time    0.0132
    --------------------------------------------
      LOOP:  cpu time  325.4403: real time  325.6784

 eigenvalue-minimisations  :  9688
 total energy-change (2. order) : 0.2037427E+02  (-0.4130735E+01)
 number of electron     400.0000000 magnetization 
 augmentation part        7.8748789 magnetization 

 Broyden mixing:
  rms(total) = 0.15591E+01    rms(broyden)= 0.15591E+01
  rms(prec ) = 0.17365E+01
  weight for this iteration     100.00

 eigenvalues of (default mixing * dielectric matrix)
  average eigenvalue GAMMA=   1.5439
  1.5439

 Free energy of the ion-electron system (eV)
  ---------------------------------------------------
  alpha Z        PSCENC =       370.05370877
  Ewald energy   TEWEN  =    -15549.63203132
  -Hartree energ DENC   =     -8276.06399960
  -exchange      EXHF   =         0.00000000
  -V(xc)+E(xc)   XCENC  =       403.67641739
  PAW double counting   =     23020.10242771   -22272.66807195
  entropy T*S    EENTRO =        -0.00000000
  eigenvalues    EBANDS =     -2864.01191454
  atomic energy  EATOM  =     24749.00668030
  Solvation  Ediel_sol  =         0.00000000
  ---------------------------------------------------
  free energy    TOTEN  =      -419.53678325 eV

  energy without entropy =     -419.53678325  energy(sigma->0) =     -419.53678325


--------------------------------------------------------------------------------------------------------




----------------------------------------- Iteration    1(   7)  ---------------------------------------


    POTLOK:  cpu time    0.4400: real time    0.4409
    SETDIJ:  cpu time    0.7600: real time    0.7603
     EDDAV:  cpu time  330.0046: real time  330.2087
       DOS:  cpu time    0.0000: real time    0.0008
    CHARGE:  cpu time    9.2046: real time    9.2093
    MIXING:  cpu time    0.0120: real time    0.0134
    --------------------------------------------
      LOOP:  cpu time  340.4253: real time  340.6828

 eigenvalue-minimisations  : 10256
 total energy-change (2. order) : 0.2456358E+01  (-0.1449258E+01)
 number of electron     400.0000000 magnetization 
 augmentation part        8.0002776 magnetization 

 Broyden mixing:
  rms(total) = 0.77817E+00    rms(broyden)= 0.77815E+00
  rms(prec ) = 0.83015E+00
  weight for this iteration     100.00

 eigenvalues of (default mixing * dielectric matrix)
  average eigenvalue GAMMA=   1.9342
  1.4484  2.4199

 Free energy of the ion-electron system (eV)
  ---------------------------------------------------
  alpha Z        PSCENC =       370.05370877
  Ewald energy   TEWEN  =    -15549.63203132
  -Hartree energ DENC   =     -8363.29824057
  -exchange      EXHF   =         0.00000000
  -V(xc)+E(xc)   XCENC  =       413.10108056
  PAW double counting   =     26079.50821793   -25330.85352272
  entropy T*S    EENTRO =         0.00000000
  eigenvalues    EBANDS =     -2784.96631847
  atomic energy  EATOM  =     24749.00668030
  Solvation  Ediel_sol  =         0.00000000
  ---------------------------------------------------
  free energy    TOTEN  =      -417.08042552 eV

  energy without entropy =     -417.08042552  energy(sigma->0) =     -417.08042552


--------------------------------------------------------------------------------------------------------




----------------------------------------- Iteration    1(   8)  ---------------------------------------


    POTLOK:  cpu time    0.4400: real time    0.4429
    SETDIJ:  cpu time    0.7600: real time    0.7596
     EDDAV:  cpu time  286.3579: real time  286.5350
       DOS:  cpu time    0.0000: real time    0.0007
    CHARGE:  cpu time    9.2086: real time    9.2123
    MIXING:  cpu time    0.0120: real time    0.0135
    --------------------------------------------
      LOOP:  cpu time  296.7825: real time  296.9840

 eigenvalue-minimisations  :  8600
 total energy-change (2. order) : 0.1693383E+00  (-0.3051478E+00)
 number of electron     400.0000000 magnetization 
 augmentation part        7.9293611 magnetization 

 Broyden mixing:
  rms(total) = 0.18269E+00    rms(broyden)= 0.18268E+00
  rms(prec ) = 0.22192E+00
  weight for this iteration     100.00

 eigenvalues of (default mixing * dielectric matrix)
  average eigenvalue GAMMA=   1.6348
  2.3833  1.2605  1.2605

 Free energy of the ion-electron system (eV)
  ---------------------------------------------------
  alpha Z        PSCENC =       370.05370877
  Ewald energy   TEWEN  =    -15549.63203132
  -Hartree energ DENC   =     -8371.59517516
  -exchange      EXHF   =         0.00000000
  -V(xc)+E(xc)   XCENC  =       416.34487284
  PAW double counting   =     28526.57631069   -27778.91546734
  entropy T*S    EENTRO =         0.00000000
  eigenvalues    EBANDS =     -2778.74998601
  atomic energy  EATOM  =     24749.00668030
  Solvation  Ediel_sol  =         0.00000000
  ---------------------------------------------------
  free energy    TOTEN  =      -416.91108725 eV

  energy without entropy =     -416.91108725  energy(sigma->0) =     -416.91108725


--------------------------------------------------------------------------------------------------------




----------------------------------------- Iteration    1(   9)  ---------------------------------------


    POTLOK:  cpu time    0.4400: real time    0.4403
    SETDIJ:  cpu time    0.7600: real time    0.7593
     EDDAV:  cpu time  309.7914: real time  309.9883
       DOS:  cpu time    0.0000: real time    0.0007
    CHARGE:  cpu time    9.2086: real time    9.2115
    MIXING:  cpu time    0.0120: real time    0.0138
    --------------------------------------------
      LOOP:  cpu time  320.2160: real time  320.4812

 eigenvalue-minimisations  :  9488
 total energy-change (2. order) : 0.7318425E-01  (-0.7578138E-01)
 number of electron     400.0000000 magnetization 
 augmentation part        7.9400607 magnetization 

 Broyden mixing:
  rms(total) = 0.72222E-01    rms(broyden)= 0.72215E-01
  rms(prec ) = 0.81226E-01
  weight for this iteration     100.00

 eigenvalues of (default mixing * dielectric matrix)
  average eigenvalue GAMMA=   1.5423
  2.3233  1.0676  1.4965  1.2816

 Free energy of the ion-electron system (eV)
  ---------------------------------------------------
  alpha Z        PSCENC =       370.05370877
  Ewald energy   TEWEN  =    -15549.63203132
  -Hartree energ DENC   =     -8389.41838195
  -exchange      EXHF   =         0.00000000
  -V(xc)+E(xc)   XCENC  =       417.39196796
  PAW double counting   =     28529.79116539   -27782.22320207
  entropy T*S    EENTRO =         0.00000000
  eigenvalues    EBANDS =     -2761.80781008
  atomic energy  EATOM  =     24749.00668030
  Solvation  Ediel_sol  =         0.00000000
  ---------------------------------------------------
  free energy    TOTEN  =      -416.83790300 eV

  energy without entropy =     -416.83790300  energy(sigma->0) =     -416.83790300


--------------------------------------------------------------------------------------------------------




----------------------------------------- Iteration    1(  10)  ---------------------------------------


    POTLOK:  cpu time    0.4400: real time    0.4409
    SETDIJ:  cpu time    0.7600: real time    0.7600
     EDDAV:  cpu time  292.0943: real time  292.2785
       DOS:  cpu time    0.0000: real time    0.0006
    CHARGE:  cpu time    9.2046: real time    9.2109
    MIXING:  cpu time    0.0160: real time    0.0141
    --------------------------------------------
      LOOP:  cpu time  302.5189: real time  302.7449

 eigenvalue-minimisations  :  8816
 total energy-change (2. order) :-0.1148966E-01  (-0.1094153E-01)
 number of electron     400.0000000 magnetization 
 augmentation part        7.9155334 magnetization 

 Broyden mixing:
  rms(total) = 0.46372E-01    rms(broyden)= 0.46370E-01
  rms(prec ) = 0.53451E-01
  weight for this iteration     100.00

 eigenvalues of (default mixing * dielectric matrix)
  average eigenvalue GAMMA=   1.4588
  2.3866  1.9234  1.0594  1.0594  0.8651

 Free energy of the ion-electron system (eV)
  ---------------------------------------------------
  alpha Z        PSCENC =       370.05370877
  Ewald energy   TEWEN  =    -15549.63203132
  -Hartree energ DENC   =     -8390.31868624
  -exchange      EXHF   =         0.00000000
  -V(xc)+E(xc)   XCENC  =       417.49095097
  PAW double counting   =     28564.21665413   -27816.90323065
  entropy T*S    EENTRO =         0.00000000
  eigenvalues    EBANDS =     -2760.76343861
  atomic energy  EATOM  =     24749.00668030
  Solvation  Ediel_sol  =         0.00000000
  ---------------------------------------------------
  free energy    TOTEN  =      -416.84939265 eV

  energy without entropy =     -416.84939265  energy(sigma->0) =     -416.84939265


--------------------------------------------------------------------------------------------------------




----------------------------------------- Iteration    1(  11)  ---------------------------------------


    POTLOK:  cpu time    0.4400: real time    0.4420
    SETDIJ:  cpu time    0.7600: real time    0.7601
     EDDAV:  cpu time  323.4002: real time  323.6037
       DOS:  cpu time    0.0000: real time    0.0006
    CHARGE:  cpu time    9.2086: real time    9.2133
    MIXING:  cpu time    0.0160: real time    0.0148
    --------------------------------------------
      LOOP:  cpu time  333.8289: real time  334.2987

 eigenvalue-minimisations  : 10000
 total energy-change (2. order) : 0.2658378E-03  (-0.1453364E-02)
 number of electron     400.0000000 magnetization 
 augmentation part        7.9163820 magnetization 

 Broyden mixing:
  rms(total) = 0.19623E-01    rms(broyden)= 0.19622E-01
  rms(prec ) = 0.23348E-01
  weight for this iteration     100.00

 eigenvalues of (default mixing * dielectric matrix)
  average eigenvalue GAMMA=   1.5229
  2.4436  1.9681  1.5234  1.1164  1.0428  1.0428

 Free energy of the ion-electron system (eV)
  ---------------------------------------------------
  alpha Z        PSCENC =       370.05370877
  Ewald energy   TEWEN  =    -15549.63203132
  -Hartree energ DENC   =     -8389.53844795
  -exchange      EXHF   =         0.00000000
  -V(xc)+E(xc)   XCENC  =       417.50692754
  PAW double counting   =     28600.99705023   -27853.76334804
  entropy T*S    EENTRO =        -0.00000000
  eigenvalues    EBANDS =     -2761.47966634
  atomic energy  EATOM  =     24749.00668030
  Solvation  Ediel_sol  =         0.00000000
  ---------------------------------------------------
  free energy    TOTEN  =      -416.84912682 eV

  energy without entropy =     -416.84912682  energy(sigma->0) =     -416.84912682


--------------------------------------------------------------------------------------------------------




----------------------------------------- Iteration    1(  12)  ---------------------------------------


    POTLOK:  cpu time    0.4480: real time    0.4468
    SETDIJ:  cpu time    0.7600: real time    0.7612
     EDDAV:  cpu time  317.0918: real time  317.2888
       DOS:  cpu time    0.0000: real time    0.0005
    CHARGE:  cpu time    9.2046: real time    9.2109
    MIXING:  cpu time    0.0160: real time    0.0148
    --------------------------------------------
      LOOP:  cpu time  327.5205: real time  327.7290

 eigenvalue-minimisations  :  9760
 total energy-change (2. order) :-0.1383486E-02  (-0.9151281E-03)
 number of electron     400.0000000 magnetization 
 augmentation part        7.9275324 magnetization 

 Broyden mixing:
  rms(total) = 0.10736E-01    rms(broyden)= 0.10735E-01
  rms(prec ) = 0.12804E-01
  weight for this iteration     100.00

 eigenvalues of (default mixing * dielectric matrix)
  average eigenvalue GAMMA=   1.4745
  2.6054  2.3014  1.3115  1.3115  0.9213  0.9353  0.9353

 Free energy of the ion-electron system (eV)
  ---------------------------------------------------
  alpha Z        PSCENC =       370.05370877
  Ewald energy   TEWEN  =    -15549.63203132
  -Hartree energ DENC   =     -8389.97383614
  -exchange      EXHF   =         0.00000000
  -V(xc)+E(xc)   XCENC  =       417.56647092
  PAW double counting   =     28592.46667470   -27845.26018681
  entropy T*S    EENTRO =        -0.00000000
  eigenvalues    EBANDS =     -2761.07799072
  atomic energy  EATOM  =     24749.00668030
  Solvation  Ediel_sol  =         0.00000000
  ---------------------------------------------------
  free energy    TOTEN  =      -416.85051030 eV

  energy without entropy =     -416.85051030  energy(sigma->0) =     -416.85051030


--------------------------------------------------------------------------------------------------------




----------------------------------------- Iteration    1(  13)  ---------------------------------------


    POTLOK:  cpu time    0.4440: real time    0.4412
    SETDIJ:  cpu time    0.7560: real time    0.7576
     EDDAV:  cpu time  278.3094: real time  278.4843
       DOS:  cpu time    0.0000: real time    0.0008
    CHARGE:  cpu time    9.2086: real time    9.2125
    MIXING:  cpu time    0.0160: real time    0.0152
    --------------------------------------------
      LOOP:  cpu time  288.7340: real time  288.9489

 eigenvalue-minimisations  :  8288
 total energy-change (2. order) :-0.1478201E-03  (-0.1334682E-03)
 number of electron     400.0000000 magnetization 
 augmentation part        7.9260138 magnetization 

 Broyden mixing:
  rms(total) = 0.74069E-02    rms(broyden)= 0.74066E-02
  rms(prec ) = 0.84562E-02
  weight for this iteration     100.00

 eigenvalues of (default mixing * dielectric matrix)
  average eigenvalue GAMMA=   1.4445
  2.6170  2.3401  1.4877  1.2579  0.9445  0.9445  0.9820  0.9820

 Free energy of the ion-electron system (eV)
  ---------------------------------------------------
  alpha Z        PSCENC =       370.05370877
  Ewald energy   TEWEN  =    -15549.63203132
  -Hartree energ DENC   =     -8390.27115325
  -exchange      EXHF   =         0.00000000
  -V(xc)+E(xc)   XCENC  =       417.59174317
  PAW double counting   =     28591.96146223   -27844.76924386
  entropy T*S    EENTRO =         0.00000000
  eigenvalues    EBANDS =     -2760.79182415
  atomic energy  EATOM  =     24749.00668030
  Solvation  Ediel_sol  =         0.00000000
  ---------------------------------------------------
  free energy    TOTEN  =      -416.85065812 eV

  energy without entropy =     -416.85065812  energy(sigma->0) =     -416.85065812


--------------------------------------------------------------------------------------------------------




----------------------------------------- Iteration    1(  14)  ---------------------------------------


    POTLOK:  cpu time    0.4400: real time    0.4408
    SETDIJ:  cpu time    0.7600: real time    0.7586
     EDDAV:  cpu time  288.2060: real time  288.3847
       DOS:  cpu time    0.0000: real time    0.0008
    CHARGE:  cpu time    9.2046: real time    9.2094
    MIXING:  cpu time    0.0160: real time    0.0152
    --------------------------------------------
      LOOP:  cpu time  298.6267: real time  298.8285

 eigenvalue-minimisations  :  8664
 total energy-change (2. order) :-0.3594579E-04  (-0.2913740E-04)
 number of electron     400.0000000 magnetization 
 augmentation part        7.9261736 magnetization 

 Broyden mixing:
  rms(total) = 0.32813E-02    rms(broyden)= 0.32812E-02
  rms(prec ) = 0.38075E-02
  weight for this iteration     100.00

 eigenvalues of (default mixing * dielectric matrix)
  average eigenvalue GAMMA=   1.5326
  2.7409  2.7409  1.8987  1.0463  1.0463  1.2888  0.9441  1.0437  1.0437

 Free energy of the ion-electron system (eV)
  ---------------------------------------------------
  alpha Z        PSCENC =       370.05370877
  Ewald energy   TEWEN  =    -15549.63203132
  -Hartree energ DENC   =     -8390.60030659
  -exchange      EXHF   =         0.00000000
  -V(xc)+E(xc)   XCENC  =       417.61300447
  PAW double counting   =     28587.25450622   -27840.04978426
  entropy T*S    EENTRO =         0.00000000
  eigenvalues    EBANDS =     -2760.49647165
  atomic energy  EATOM  =     24749.00668030
  Solvation  Ediel_sol  =         0.00000000
  ---------------------------------------------------
  free energy    TOTEN  =      -416.85069407 eV

  energy without entropy =     -416.85069407  energy(sigma->0) =     -416.85069407


--------------------------------------------------------------------------------------------------------




----------------------------------------- Iteration    1(  15)  ---------------------------------------


    POTLOK:  cpu time    0.4440: real time    0.4458
    SETDIJ:  cpu time    0.7600: real time    0.7612
     EDDAV:  cpu time  277.6894: real time  277.8616
       DOS:  cpu time    0.0000: real time    0.0007
    CHARGE:  cpu time    9.2086: real time    9.2129
    MIXING:  cpu time    0.0160: real time    0.0156
    --------------------------------------------
      LOOP:  cpu time  288.1220: real time  288.3051

 eigenvalue-minimisations  :  8264
 total energy-change (2. order) :-0.4295815E-04  (-0.1587578E-04)
 number of electron     400.0000000 magnetization 
 augmentation part        7.9259672 magnetization 

 Broyden mixing:
  rms(total) = 0.12276E-02    rms(broyden)= 0.12274E-02
  rms(prec ) = 0.14084E-02
  weight for this iteration     100.00

 eigenvalues of (default mixing * dielectric matrix)
  average eigenvalue GAMMA=   1.4961
  3.0011  2.4325  2.0412  1.5298  1.0209  1.0209  1.0429  1.0429  0.9761  0.8530

 Free energy of the ion-electron system (eV)
  ---------------------------------------------------
  alpha Z        PSCENC =       370.05370877
  Ewald energy   TEWEN  =    -15549.63203132
  -Hartree energ DENC   =     -8390.89196799
  -exchange      EXHF   =         0.00000000
  -V(xc)+E(xc)   XCENC  =       417.63075563
  PAW double counting   =     28581.01075148   -27833.78965529
  entropy T*S    EENTRO =         0.00000000
  eigenvalues    EBANDS =     -2760.23897860
  atomic energy  EATOM  =     24749.00668030
  Solvation  Ediel_sol  =         0.00000000
  ---------------------------------------------------
  free energy    TOTEN  =      -416.85073703 eV

  energy without entropy =     -416.85073703  energy(sigma->0) =     -416.85073703


--------------------------------------------------------------------------------------------------------




----------------------------------------- Iteration    1(  16)  ---------------------------------------


    POTLOK:  cpu time    0.4400: real time    0.4416
    SETDIJ:  cpu time    0.7600: real time    0.7596
     EDDAV:  cpu time  338.9092: real time  339.1188
       DOS:  cpu time    0.0000: real time    0.0005
    CHARGE:  cpu time    9.2046: real time    9.2121
    MIXING:  cpu time    0.0160: real time    0.0159
    --------------------------------------------
      LOOP:  cpu time  349.3338: real time  356.8663

 eigenvalue-minimisations  : 10576
 total energy-change (2. order) :-0.4009929E-05  (-0.1453353E-05)
 number of electron     400.0000000 magnetization 
 augmentation part        7.9258857 magnetization 

 Broyden mixing:
  rms(total) = 0.12851E-02    rms(broyden)= 0.12849E-02
  rms(prec ) = 0.14441E-02
  weight for this iteration     100.00

 eigenvalues of (default mixing * dielectric matrix)
  average eigenvalue GAMMA=   1.5030
  3.0747  2.4250  1.9275  1.9275  1.1182  1.1182  1.3225  0.9730  0.9730  0.8368
  0.8368

 Free energy of the ion-electron system (eV)
  ---------------------------------------------------
  alpha Z        PSCENC =       370.05370877
  Ewald energy   TEWEN  =    -15549.63203132
  -Hartree energ DENC   =     -8390.92338375
  -exchange      EXHF   =         0.00000000
  -V(xc)+E(xc)   XCENC  =       417.63432179
  PAW double counting   =     28582.30239786   -27835.07836627
  entropy T*S    EENTRO =         0.00000000
  eigenvalues    EBANDS =     -2760.21406841
  atomic energy  EATOM  =     24749.00668030
  Solvation  Ediel_sol  =         0.00000000
  ---------------------------------------------------
[...]
   0.111E+02 0.380E-01 0.496E+02   -.114E+02 -.438E-01 -.550E+02   0.338E+00 0.579E-02 0.561E+01   -.302E-05 -.898E-07 0.384E-05
   0.364E+00 0.533E-01 0.522E+02   0.560E+00 -.587E-01 -.575E+02   -.963E+00 0.542E-02 0.554E+01   0.258E-05 -.783E-06 -.594E-05
   0.289E+02 -.390E+02 -.145E+02   -.315E+02 0.436E+02 0.164E+02   0.269E+01 -.461E+01 -.196E+01   -.267E-05 -.282E-05 0.636E-06
   0.316E+02 -.393E+02 -.572E+01   -.346E+02 0.439E+02 0.703E+01   0.302E+01 -.461E+01 -.132E+01   -.440E-05 0.623E-05 0.447E-05
   0.316E+02 -.393E+02 -.572E+01   -.346E+02 0.439E+02 0.703E+01   0.302E+01 -.461E+01 -.132E+01   -.424E-05 0.605E-05 0.518E-05
   0.289E+02 -.390E+02 -.145E+02   -.315E+02 0.436E+02 0.164E+02   0.269E+01 -.461E+01 -.196E+01   -.298E-05 -.313E-05 0.542E-06
   0.316E+02 -.393E+02 -.572E+01   -.346E+02 0.439E+02 0.703E+01   0.302E+01 -.461E+01 -.132E+01   -.497E-05 0.645E-05 0.413E-05
   0.289E+02 -.390E+02 -.145E+02   -.315E+02 0.436E+02 0.164E+02   0.269E+01 -.461E+01 -.196E+01   -.273E-05 -.175E-05 0.618E-06
   0.289E+02 -.390E+02 -.145E+02   -.315E+02 0.436E+02 0.164E+02   0.269E+01 -.461E+01 -.196E+01   -.245E-05 -.303E-05 0.129E-06
   0.316E+02 -.393E+02 -.572E+01   -.346E+02 0.439E+02 0.703E+01   0.302E+01 -.461E+01 -.132E+01   -.471E-05 0.514E-05 0.440E-05
   0.288E+02 0.390E+02 -.146E+02   -.314E+02 -.436E+02 0.165E+02   0.268E+01 0.461E+01 -.197E+01   -.239E-05 0.268E-05 0.871E-06
   0.316E+02 0.393E+02 -.580E+01   -.345E+02 -.439E+02 0.712E+01   0.302E+01 0.461E+01 -.133E+01   -.483E-05 -.557E-05 0.445E-05
   0.316E+02 0.393E+02 -.580E+01   -.345E+02 -.439E+02 0.712E+01   0.302E+01 0.461E+01 -.133E+01   -.454E-05 -.578E-05 0.476E-05
   0.288E+02 0.390E+02 -.146E+02   -.314E+02 -.436E+02 0.165E+02   0.268E+01 0.461E+01 -.197E+01   -.256E-05 0.253E-05 0.447E-06
   0.316E+02 0.393E+02 -.580E+01   -.345E+02 -.439E+02 0.712E+01   0.302E+01 0.461E+01 -.133E+01   -.429E-05 -.573E-05 0.432E-05
   0.288E+02 0.390E+02 -.146E+02   -.314E+02 -.436E+02 0.165E+02   0.268E+01 0.461E+01 -.197E+01   -.278E-05 0.346E-05 0.408E-06
   0.288E+02 0.390E+02 -.146E+02   -.314E+02 -.436E+02 0.165E+02   0.268E+01 0.461E+01 -.197E+01   -.303E-05 0.224E-05 0.142E-06
   0.316E+02 0.393E+02 -.580E+01   -.345E+02 -.439E+02 0.712E+01   0.302E+01 0.461E+01 -.133E+01   -.466E-05 -.687E-05 0.474E-05
   -.308E+02 -.482E+02 0.200E+02   0.341E+02 0.536E+02 -.222E+02   -.336E+01 -.549E+01 0.226E+01   -.713E-05 -.490E-05 0.138E-05
   -.359E+02 -.478E+02 0.147E+02   0.395E+02 0.532E+02 -.161E+02   -.373E+01 -.548E+01 0.147E+01   0.837E-05 0.119E-05 0.240E-05
   -.359E+02 -.478E+02 0.147E+02   0.395E+02 0.532E+02 -.161E+02   -.373E+01 -.548E+01 0.147E+01   0.860E-05 0.138E-05 0.223E-05
   -.308E+02 -.482E+02 0.200E+02   0.341E+02 0.536E+02 -.222E+02   -.336E+01 -.549E+01 0.226E+01   -.693E-05 -.525E-05 0.200E-05
   -.359E+02 -.478E+02 0.147E+02   0.395E+02 0.532E+02 -.161E+02   -.373E+01 -.548E+01 0.147E+01   0.882E-05 0.127E-05 0.201E-05
   -.308E+02 -.482E+02 0.200E+02   0.341E+02 0.536E+02 -.222E+02   -.336E+01 -.549E+01 0.226E+01   -.649E-05 -.288E-05 0.131E-05
   -.308E+02 -.482E+02 0.200E+02   0.341E+02 0.536E+02 -.222E+02   -.336E+01 -.549E+01 0.226E+01   -.716E-05 -.507E-05 0.148E-05
   -.359E+02 -.478E+02 0.147E+02   0.395E+02 0.532E+02 -.161E+02   -.373E+01 -.548E+01 0.147E+01   0.854E-05 -.256E-06 0.152E-05
   -.309E+02 0.481E+02 0.199E+02   0.342E+02 -.536E+02 -.221E+02   -.337E+01 0.548E+01 0.225E+01   -.692E-05 0.408E-05 0.158E-05
   -.359E+02 0.478E+02 0.145E+02   0.395E+02 -.532E+02 -.160E+02   -.373E+01 0.548E+01 0.146E+01   0.856E-05 -.185E-06 0.229E-05
   -.359E+02 0.478E+02 0.145E+02   0.395E+02 -.532E+02 -.160E+02   -.373E+01 0.548E+01 0.146E+01   0.844E-05 -.303E-06 0.196E-05
   -.309E+02 0.481E+02 0.199E+02   0.342E+02 -.536E+02 -.221E+02   -.337E+01 0.548E+01 0.225E+01   -.714E-05 0.433E-05 0.188E-05
   -.359E+02 0.478E+02 0.145E+02   0.395E+02 -.532E+02 -.160E+02   -.373E+01 0.548E+01 0.146E+01   0.825E-05 -.550E-06 0.218E-05
   -.309E+02 0.481E+02 0.199E+02   0.342E+02 -.536E+02 -.221E+02   -.337E+01 0.548E+01 0.225E+01   -.697E-05 0.555E-05 0.118E-05
   -.309E+02 0.481E+02 0.199E+02   0.342E+02 -.536E+02 -.221E+02   -.337E+01 0.548E+01 0.225E+01   -.668E-05 0.412E-05 0.156E-05
   -.359E+02 0.478E+02 0.145E+02   0.395E+02 -.532E+02 -.160E+02   -.373E+01 0.548E+01 0.146E+01   0.906E-05 -.259E-05 0.163E-05
   -.365E+01 -.562E-01 -.604E+02   0.438E+01 0.608E-01 0.667E+02   -.821E+00 -.432E-02 -.658E+01   -.473E-05 -.322E-06 -.736E-05
   0.100E+02 -.799E-01 -.646E+02   -.109E+02 0.904E-01 0.714E+02   0.889E+00 -.104E-01 -.695E+01   0.401E-05 0.821E-06 0.375E-05
   0.100E+02 -.799E-01 -.646E+02   -.109E+02 0.904E-01 0.714E+02   0.889E+00 -.104E-01 -.695E+01   0.370E-05 0.706E-06 0.402E-05
   -.365E+01 -.562E-01 -.604E+02   0.438E+01 0.608E-01 0.667E+02   -.821E+00 -.432E-02 -.658E+01   -.425E-05 -.590E-06 -.698E-05
   0.100E+02 -.799E-01 -.646E+02   -.109E+02 0.904E-01 0.714E+02   0.889E+00 -.104E-01 -.695E+01   0.401E-05 -.176E-06 0.354E-05
   -.365E+01 -.562E-01 -.604E+02   0.438E+01 0.608E-01 0.667E+02   -.821E+00 -.432E-02 -.658E+01   -.465E-05 0.115E-05 -.775E-05
   -.365E+01 -.562E-01 -.604E+02   0.438E+01 0.608E-01 0.667E+02   -.821E+00 -.432E-02 -.658E+01   -.421E-05 -.302E-06 -.732E-05
   0.100E+02 -.799E-01 -.646E+02   -.109E+02 0.904E-01 0.714E+02   0.889E+00 -.104E-01 -.695E+01   0.361E-05 -.130E-05 0.348E-05
   -.305E+02 0.715E+01 -.113E+02   0.294E+02 -.710E+01 0.110E+02   0.108E+01 -.521E-01 0.283E+00   0.178E-04 0.612E-05 0.313E-05
   -.305E+02 -.701E+01 -.113E+02   0.294E+02 0.695E+01 0.110E+02   0.108E+01 0.619E-01 0.284E+00   0.103E-05 0.353E-05 0.795E-05
   -.305E+02 -.701E+01 -.113E+02   0.294E+02 0.695E+01 0.110E+02   0.108E+01 0.619E-01 0.284E+00   -.729E-05 -.819E-05 -.222E-04
   -.305E+02 0.715E+01 -.113E+02   0.294E+02 -.710E+01 0.110E+02   0.108E+01 -.521E-01 0.283E+00   0.293E-04 -.553E-05 -.161E-04
   -.305E+02 -.701E+01 -.113E+02   0.294E+02 0.695E+01 0.110E+02   0.108E+01 0.619E-01 0.284E+00   0.222E-04 0.654E-05 -.256E-04
   -.305E+02 0.715E+01 -.113E+02   0.294E+02 -.710E+01 0.110E+02   0.108E+01 -.521E-01 0.283E+00   -.581E-05 0.409E-05 -.312E-04
   -.305E+02 0.715E+01 -.113E+02   0.294E+02 -.710E+01 0.110E+02   0.108E+01 -.521E-01 0.283E+00   -.239E-05 -.448E-05 -.396E-05
   -.305E+02 -.701E+01 -.113E+02   0.294E+02 0.695E+01 0.110E+02   0.108E+01 0.619E-01 0.284E+00   0.245E-04 -.185E-05 -.102E-04
   -.170E+02 -.318E+01 0.542E+01   0.171E+02 0.326E+01 -.536E+01   -.139E+00 -.733E-01 -.636E-01   0.135E-04 0.114E-04 0.278E-05
   -.171E+02 0.327E+01 0.541E+01   0.173E+02 -.334E+01 -.535E+01   -.141E+00 0.742E-01 -.638E-01   0.105E-04 -.925E-05 0.848E-05
   -.171E+02 0.327E+01 0.541E+01   0.173E+02 -.334E+01 -.535E+01   -.141E+00 0.742E-01 -.638E-01   0.870E-05 -.116E-04 0.812E-05
   -.170E+02 -.318E+01 0.542E+01   0.171E+02 0.326E+01 -.536E+01   -.139E+00 -.733E-01 -.636E-01   0.149E-04 0.906E-05 0.119E-04
   -.171E+02 0.327E+01 0.541E+01   0.173E+02 -.334E+01 -.535E+01   -.141E+00 0.742E-01 -.638E-01   0.146E-04 -.864E-05 0.873E-05
   -.170E+02 -.318E+01 0.542E+01   0.171E+02 0.326E+01 -.536E+01   -.139E+00 -.733E-01 -.636E-01   0.105E-04 0.111E-04 0.414E-05
   -.170E+02 -.318E+01 0.542E+01   0.171E+02 0.326E+01 -.536E+01   -.139E+00 -.733E-01 -.636E-01   0.882E-05 0.916E-05 0.550E-05
   -.171E+02 0.327E+01 0.541E+01   0.173E+02 -.334E+01 -.535E+01   -.141E+00 0.742E-01 -.638E-01   0.144E-04 -.113E-04 0.976E-06
   -.355E+02 -.522E-01 -.114E+02   0.358E+02 0.534E-01 0.118E+02   -.201E+00 -.960E-03 -.489E+00   -.152E-05 0.496E-05 -.211E-04
   0.744E+01 -.534E-01 -.179E+02   -.782E+01 0.547E-01 0.187E+02   0.381E+00 -.103E-02 -.854E+00   0.293E-04 0.770E-05 -.592E-05
   0.744E+01 -.534E-01 -.179E+02   -.782E+01 0.547E-01 0.187E+02   0.381E+00 -.103E-02 -.854E+00   0.311E-04 -.423E-05 -.602E-05
   -.355E+02 -.522E-01 -.114E+02   0.358E+02 0.534E-01 0.118E+02   -.201E+00 -.960E-03 -.489E+00   -.114E-05 -.748E-05 -.211E-04
   0.744E+01 -.534E-01 -.179E+02   -.782E+01 0.547E-01 0.187E+02   0.381E+00 -.103E-02 -.854E+00   0.290E-04 0.102E-05 -.338E-05
   -.355E+02 -.522E-01 -.114E+02   0.358E+02 0.534E-01 0.118E+02   -.201E+00 -.960E-03 -.489E+00   -.435E-06 0.508E-05 -.185E-04
   -.355E+02 -.522E-01 -.114E+02   0.358E+02 0.534E-01 0.118E+02   -.201E+00 -.960E-03 -.489E+00   -.257E-05 -.136E-05 -.187E-04
   0.744E+01 -.534E-01 -.179E+02   -.782E+01 0.547E-01 0.187E+02   0.381E+00 -.103E-02 -.854E+00   0.322E-04 -.550E-05 -.364E-05
   0.488E+01 0.190E+01 -.492E+01   -.435E+01 -.174E+01 0.452E+01   -.549E+00 -.159E+00 0.454E+00   -.715E-05 -.649E-05 0.572E-05
   0.488E+01 -.190E+01 -.499E+01   -.435E+01 0.174E+01 0.459E+01   -.549E+00 0.157E+00 0.453E+00   -.114E-05 0.945E-05 0.551E-05
   0.488E+01 -.190E+01 -.499E+01   -.435E+01 0.174E+01 0.459E+01   -.549E+00 0.157E+00 0.453E+00   -.278E-05 0.642E-05 0.215E-05
   0.488E+01 0.190E+01 -.492E+01   -.435E+01 -.174E+01 0.452E+01   -.549E+00 -.159E+00 0.454E+00   -.521E-05 -.829E-05 0.303E-05
   0.488E+01 -.190E+01 -.499E+01   -.435E+01 0.174E+01 0.459E+01   -.549E+00 0.157E+00 0.453E+00   -.258E-05 0.944E-05 0.102E-05
   0.488E+01 0.190E+01 -.492E+01   -.435E+01 -.174E+01 0.452E+01   -.549E+00 -.159E+00 0.454E+00   -.667E-05 -.827E-05 -.198E-06
   0.488E+01 0.190E+01 -.492E+01   -.435E+01 -.174E+01 0.452E+01   -.549E+00 -.159E+00 0.454E+00   0.182E-05 -.763E-05 0.111E-05
   0.488E+01 -.190E+01 -.499E+01   -.435E+01 0.174E+01 0.459E+01   -.549E+00 0.157E+00 0.453E+00   -.819E-05 0.537E-05 0.150E-05
 -----------------------------------------------------------------------------------------------
   -.545E+02 -.972E-01 -.219E+02   0.444E-12 -.152E-12 -.492E-12   0.545E+02 0.972E-01 0.219E+02   0.239E-03 0.866E-06 0.645E-04
 
 
 POSITION                                       TOTAL-FORCE (eV/Angst)
 -----------------------------------------------------------------------------------
      2.51807      3.11299      2.94139         0.140587     -0.000486     -0.071948
      8.78990      3.11525      3.01794         0.161154     -0.000566     -0.031082
      2.50208      9.34306      2.94847         0.161154     -0.000566     -0.031082
      8.80708      9.34272      3.01012         0.140587     -0.000486     -0.071948
      2.57119      3.11433      9.32255         0.161154     -0.000566     -0.031082
      8.87619      3.11399      9.38420         0.140587     -0.000486     -0.071948
      2.58837      9.34180      9.31473         0.140587     -0.000486     -0.071948
      8.86021      9.34406      9.39128         0.161154     -0.000566     -0.031082
      3.94389      3.11463      3.37363        -0.052447     -0.000723      0.050156
     10.08172      3.11640      3.76190        -0.066240     -0.000840     -0.028026
      3.79390      9.34421      3.69243        -0.066240     -0.000840     -0.028026
     10.23291      9.34436      3.44236        -0.052447     -0.000723      0.050156
      3.86300      3.11549     10.06652        -0.066240     -0.000840     -0.028026
     10.30202      3.11563      9.81644        -0.052447     -0.000723      0.050156
      4.01420      9.34344      9.74697        -0.052447     -0.000723      0.050156
     10.15202      9.34522     10.13524        -0.066240     -0.000840     -0.028026
      2.47974      3.11190      1.83527         0.027037      0.000078      0.237855
      9.00751      3.11418      1.93306        -0.038917      0.000063      0.240057
      2.71969      9.34200      1.86359        -0.038917      0.000063      0.240057
      8.76876      9.34162      1.90400         0.027037      0.000078      0.237855
      2.78880      3.11327      8.23767        -0.038917      0.000063      0.240057
      8.83787      3.11290      8.27808         0.027037      0.000078      0.237855
      2.55004      9.34071      8.20861         0.027037      0.000078      0.237855
      9.07781      9.34300      8.30640        -0.038917      0.000063      0.240057
      2.02129      4.01445      3.33385         0.065736     -0.041657     -0.023673
      8.22131      4.01857      3.29175         0.068096     -0.041936     -0.010505
      1.93349     10.24638      3.22228         0.068096     -0.041936     -0.010505
      8.31030     10.24418      3.40257         0.065736     -0.041657     -0.023673
      2.00260      4.01766      9.59636         0.068096     -0.041936     -0.010505
      8.37941      4.01546      9.77666         0.065736     -0.041657     -0.023673
      2.09159     10.24327      9.70719         0.065736     -0.041657     -0.023673
      8.29161     10.24738      9.66509         0.068096     -0.041936     -0.010505
      2.02300      2.21131      3.33557         0.065490      0.042283     -0.024279
      8.22192      2.21212      3.29373         0.068008      0.042492     -0.011093
      1.93410      8.43993      3.22425         0.068008      0.042492     -0.011093
      8.31202      8.44103      3.40430         0.065490      0.042283     -0.024279
      2.00321      2.21120      9.59834         0.068008      0.042492     -0.011093
      8.38113      2.21231      9.77838         0.065490      0.042283     -0.024279
      2.09331      8.44012      9.70891         0.065490      0.042283     -0.024279
      8.29223      8.44093      9.66706         0.068008      0.042492     -0.011093
      4.45793      3.95939      3.02587        -0.082752     -0.060267      0.031383
     10.65803      3.96280      3.53197        -0.091624     -0.063809      0.013218
      4.37021     10.19062      3.46250        -0.091624     -0.063809      0.013218
     10.74694     10.18912      3.09460        -0.082752     -0.060267      0.031383
      4.43932      3.96189      9.83658        -0.091624     -0.063809      0.013218
     10.81605      3.96040      9.46868        -0.082752     -0.060267      0.031383
      4.52823     10.18821      9.39921        -0.082752     -0.060267      0.031383
     10.72834     10.19162      9.90531        -0.091624     -0.063809      0.013218
      4.45932      2.27013      3.02712        -0.083529      0.060748      0.030735
     10.65813      2.26937      3.53438        -0.092225      0.064393      0.012313
      4.37031      8.49718      3.46490        -0.092225      0.064393      0.012313
     10.74834      8.49986      3.09584        -0.083529      0.060748      0.030735
      4.43941      2.26845      9.83899        -0.092225      0.064393      0.012313
     10.81745      2.27113      9.46993        -0.083529      0.060748      0.030735
      4.52963      8.49894      9.40046        -0.083529      0.060748      0.030735
     10.72843      8.49818      9.90771        -0.092225      0.064393      0.012313
      4.06959      3.11533      4.42155        -0.087170      0.000288     -0.226732
      9.94441      3.11795      4.79717        -0.005953      0.000132     -0.219050
      3.65659      9.34576      4.72770        -0.005953      0.000132     -0.219050
     10.35861      9.34506      4.49028        -0.087170      0.000288     -0.226732
      3.72570      3.11704     11.10178        -0.005953      0.000132     -0.219050
     10.42772      3.11634     10.86436        -0.087170      0.000288     -0.226732
      4.13990      9.34415     10.79489        -0.087170      0.000288     -0.226732
     10.01472      9.34676     11.17051        -0.005953      0.000132     -0.219050
      6.01052      6.20920      6.29595         0.001269     -0.006715     -0.002610
     12.29903      6.25094      6.36516         0.001308      0.006348     -0.002543
      6.01001      0.02122      6.29643         0.001308      0.006348     -0.002543
     12.29954     12.43892      6.36467         0.001269     -0.006715     -0.002610
      6.08031      6.25003     12.66977         0.001308      0.006348     -0.002543
     12.36865      6.21020     12.73876         0.001269     -0.006715     -0.002610
      6.08083     12.43801     12.66929         0.001269     -0.006715     -0.002610
     12.36814      0.02222     12.73924         0.001308      0.006348     -0.002543
      5.75248      6.27177      3.09093         0.003947      0.003592     -0.001130
     12.04185      6.18829      3.15999         0.004039     -0.004017     -0.001124
      5.75403     12.41610      3.09052         0.004039     -0.004017     -0.001124
     12.04030      0.04396      3.16040         0.003947      0.003592     -0.001130
      5.82314      6.18738      9.46460         0.004039     -0.004017     -0.001124
     12.11060      6.27277      9.53374         0.003947      0.003592     -0.001130
      5.82159      0.04304      9.46501         0.003947      0.003592     -0.001130
     12.11215     12.41710      9.53333         0.004039     -0.004017     -0.001124
      5.97282      3.11496      0.20194         0.034234      0.000253     -0.026969
     11.62948      3.11597      0.29272         0.000130      0.000254     -0.047495
      5.34166      9.34378      0.22325         0.000130      0.000254     -0.047495
     12.26184      9.34469      0.27067         0.034234      0.000253     -0.026969
      5.41077      3.11506      6.59733         0.000130      0.000254     -0.047495
     12.33094      3.11596      6.64475         0.034234      0.000253     -0.026969
      6.04312      9.34377      6.57528         0.034234      0.000253     -0.026969
     11.69978      9.34478      6.66606         0.000130      0.000254     -0.047495
      2.78361      6.58828      5.90948        -0.020038      0.003417      0.056152
      9.07211      5.87106      5.97786        -0.020140     -0.003325      0.056388
      2.78429     12.09887      5.90838        -0.020140     -0.003325      0.056388
      9.07143      0.36047      5.97895        -0.020038      0.003417      0.056152
      2.85340      5.87015     12.28247        -0.020140     -0.003325      0.056388
      9.14174      6.58928     12.35229        -0.020038      0.003417      0.056152
      2.85272      0.35955     12.28356        -0.020038      0.003417      0.056152
      9.14241     12.09988     12.35119        -0.020140     -0.003325      0.056388
 -----------------------------------------------------------------------------------
    total drift:                                0.003428     -0.000043     -0.000500


--------------------------------------------------------------------------------------------------------



  FREE ENERGIE OF THE ION-ELECTRON SYSTEM (eV)
  ---------------------------------------------------
  free  energy   TOTEN  =      -416.85074066 eV

  energy  without entropy=     -416.85074066  energy(sigma->0) =     -416.85074066
 


--------------------------------------------------------------------------------------------------------


    POTLOK:  cpu time    1.2121: real time    1.2120


--------------------------------------------------------------------------------------------------------


     LOOP+:  cpu time 6941.2618: real time 6954.0366
    4ORBIT:  cpu time    0.0000: real time    0.0000

 total amount of memory used by VASP on root node   697522. kBytes
========================================================================

   base      :      30000. kBytes
   nonl-proj :     325712. kBytes
   fftplans  :      80881. kBytes
   grid      :      57435. kBytes
   one-center:        497. kBytes
   wavefun   :     202997. kBytes
 
  
  
 General timing and accounting informations for this job:
 ========================================================
  
                  Total CPU time used (sec):     6990.437
                            User time (sec):     6988.209
                          System time (sec):        2.228
                         Elapsed time (sec):     7004.523
  
                   Maximum memory used (kb):      640596.
                   Average memory used (kb):           0.
  
                          Minor page faults:       282295
                          Major page faults:            0
                 Voluntary context switches:         1037
