    8    8  100    1
  0.3394927E+02  0.6476000E-09  0.6476000E-09  0.6476000E-09  0.5000000E-15
  1.000000000000000E-004
  CAR 
 Name                                    
     72     10     48
