       N       E                     dE             d eps       ncg     rms          rms(c)
DAV:   1     0.360102351351E+04    0.36010E+04   -0.18947E+05  7176   0.170E+03
DAV:   2     0.200113214386E+03   -0.34009E+04   -0.32021E+04  8008   0.355E+02
DAV:   3    -0.398435563106E+03   -0.59855E+03   -0.58977E+03  9464   0.172E+02
DAV:   4    -0.438612556810E+03   -0.40177E+02   -0.40007E+02  9648   0.489E+01
DAV:   5    -0.440115001342E+03   -0.15024E+01   -0.15002E+01  9784   0.913E+00    0.296E+01
DAV:   6    -0.419556996875E+03    0.20558E+02   -0.41529E+01  9584   0.103E+01    0.157E+01
DAV:   7    -0.417087530050E+03    0.24695E+01   -0.14648E+01 10192   0.638E+00    0.783E+00
DAV:   8    -0.416916666501E+03    0.17086E+00   -0.30631E+00  8656   0.318E+00    0.183E+00
DAV:   9    -0.416842538844E+03    0.74128E-01   -0.75322E-01  9296   0.176E+00    0.722E-01
DAV:  10    -0.416854983218E+03   -0.12444E-01   -0.11458E-01  9008   0.612E-01    0.475E-01
DAV:  11    -0.416854671853E+03    0.31136E-03   -0.14859E-02  9800   0.277E-01    0.199E-01
DAV:  12    -0.416856033165E+03   -0.13613E-02   -0.87768E-03  9768   0.151E-01    0.101E-01
DAV:  13    -0.416856215328E+03   -0.18216E-03   -0.12124E-03  8504   0.751E-02    0.719E-02
DAV:  14    -0.416856255677E+03   -0.40349E-04   -0.26559E-04  8408   0.284E-02    0.322E-02
DAV:  15    -0.416856298438E+03   -0.42761E-04   -0.14927E-04  8224   0.202E-02    0.119E-02
DAV:  16    -0.416856301824E+03   -0.33865E-05   -0.12352E-05 10664   0.678E-03    0.117E-02
DAV:  17    -0.416856301723E+03    0.10086E-06   -0.35107E-06  8440   0.338E-03    0.507E-03
DAV:  18    -0.416856301856E+03   -0.13229E-06   -0.75614E-06 10080   0.441E-03    0.360E-03
DAV:  19    -0.416856301865E+03   -0.95060E-08   -0.76981E-07  8832   0.202E-03    0.228E-03
DAV:  20    -0.416856301869E+03   -0.41437E-08   -0.43249E-07  9304   0.103E-03    0.364E-04
DAV:  21    -0.416856301903E+03   -0.33426E-07   -0.35281E-08  8672   0.427E-04    0.266E-04
DAV:  22    -0.416856301897E+03    0.60500E-08   -0.27251E-09  7520   0.173E-04    0.217E-04
DAV:  23    -0.416856301900E+03   -0.27321E-08    0.32046E-10  8784   0.101E-04    0.203E-04
DAV:  24    -0.416856301897E+03    0.23865E-08    0.14439E-09  7224   0.570E-05    0.188E-04
DAV:  25    -0.416856301895E+03    0.17244E-08    0.23089E-09  6128   0.386E-05    0.190E-04
DAV:  26    -0.416856301896E+03   -0.77125E-09    0.22017E-09  4584   0.282E-05    0.187E-04
DAV:  27    -0.416856301897E+03   -0.10223E-08    0.19123E-09  4576   0.255E-05    0.186E-04
DAV:  28    -0.416856301897E+03   -0.22192E-09    0.22039E-09  4264   0.209E-05    0.186E-04
DAV:  29    -0.416856301897E+03    0.23647E-09    0.18375E-09  4232   0.105E-05    0.186E-04
DAV:  30    -0.416856301897E+03   -0.61846E-10    0.16235E-09  4216   0.756E-06    0.186E-04
DAV:  31    -0.416856301897E+03   -0.25466E-10    0.16663E-09  4208   0.640E-06    0.186E-04
DAV:  32    -0.416856301897E+03    0.37471E-09    0.13151E-09  4208   0.752E-06    0.186E-04
DAV:  33    -0.416856301897E+03   -0.19281E-09    0.16581E-09  4208   0.415E-06    0.186E-04
DAV:  34    -0.416856301897E+03    0.15643E-09    0.14330E-09  4200   0.365E-06    0.186E-04
DAV:  35    -0.416856301897E+03   -0.61846E-10    0.12588E-09  4160   0.235E-06    0.186E-04
DAV:  36    -0.416856301897E+03    0.25466E-10    0.10921E-09  4120   0.244E-06    0.186E-04
DAV:  37    -0.416856301897E+03   -0.19281E-09    0.93958E-10  4112   0.234E-06    0.186E-04
DAV:  38    -0.416856301897E+03    0.16007E-09    0.11008E-09  4080   0.172E-06    0.186E-04
DAV:  39    -0.416856301897E+03   -0.20736E-09    0.10258E-09  4064   0.912E-07    0.186E-04
DAV:  40    -0.416856301897E+03   -0.94587E-10    0.95686E-10  3992   0.634E-07
   1 F= -.41685630E+03 E0= -.41685630E+03  d E =0.000000E+00
