 running on 1344 total cores
 distrk:  each k-point on  192 cores,    7 groups
 distr:  one band on   12 cores,   16 groups
 using from now: INCAR     
 vasp.5.4.1 24Jun15 (build Nov 25 2015 16:01:35) complex                        
  
 POSCAR found type information on POSCAR  C  N  H  Pb I 
 POSCAR found :  5 types and      96 ions
 scaLAPACK will be used

 ----------------------------------------------------------------------------- 
|                                                                             |
|           W    W    AA    RRRRR   N    N  II  N    N   GGGG   !!!           |
|           W    W   A  A   R    R  NN   N  II  NN   N  G    G  !!!           |
|           W    W  A    A  R    R  N N  N  II  N N  N  G       !!!           |
|           W WW W  AAAAAA  RRRRR   N  N N  II  N  N N  G  GGG   !            |
|           WW  WW  A    A  R   R   N   NN  II  N   NN  G    G                |
|           W    W  A    A  R    R  N    N  II  N    N   GGGG   !!!           |
|                                                                             |
|      For optimal performance we recommend to set                            |
|        NCORE= 4 - approx SQRT( number of cores)                             |
|      NCORE specifies how many cores store one orbital (NPAR=cpu/NCORE).     |
|      This setting can  greatly improve the performance of VASP for DFT.     |
|      The default, NPAR=number of cores might be grossly inefficient         |
|      on modern multi-core architectures or massively parallel machines.     |
|      Do your own testing !!!!                                               |
|      Unfortunately you need to use the default for GW and RPA calculations. |
|      (for HF NCORE is supported but not extensively tested yet)             |
|                                                                             |
 ----------------------------------------------------------------------------- 


 ----------------------------------------------------------------------------- 
|                                                                             |
|           W    W    AA    RRRRR   N    N  II  N    N   GGGG   !!!           |
|           W    W   A  A   R    R  NN   N  II  NN   N  G    G  !!!           |
|           W    W  A    A  R    R  N N  N  II  N N  N  G       !!!           |
|           W WW W  AAAAAA  RRRRR   N  N N  II  N  N N  G  GGG   !            |
|           WW  WW  A    A  R   R   N   NN  II  N   NN  G    G                |
|           W    W  A    A  R    R  N    N  II  N    N   GGGG   !!!           |
|                                                                             |
|      You have enabled k-point parallelism (KPAR>1).                         |
|      This developmental code was originally  written by Paul Kent at ORNL,  |
|      and carefully double checked in Vienna.                                |
|      GW as well as linear response parallelism added by Martijn Marsman     |
|      and Georg Kresse.                                                      |
|      Carefully verify results versus KPAR=1.                                |
|      Report problems to Paul Kent and Vienna.                               |
|                                                                             |
 ----------------------------------------------------------------------------- 


 ----------------------------------------------------------------------------- 
|                                                                             |
|  ADVICE TO THIS USER RUNNING 'VASP/VAMP'   (HEAR YOUR MASTER'S VOICE ...):  |
|                                                                             |
|      You have a (more or less) 'large supercell' and for larger cells       |
|      it might be more efficient to use real space projection opertators     |
|      So try LREAL= Auto  in the INCAR   file.                               |
|      Mind: At the moment your POTCAR file does not contain real space       |
|       projectors, and has to be modified,  BUT if you                       |
|      want to do an extremely  accurate calculation you might also keep the  |
|      reciprocal projection scheme          (i.e. LREAL=.FALSE.)             |
|                                                                             |
 ----------------------------------------------------------------------------- 

 LDA part: xc-table for Pade appr. of Perdew
 POSCAR, INCAR and KPOINTS ok, starting setup
 WARNING: small aliasing (wrap around) errors must be expected
 FFT: planning ...
 WAVECAR not read
  WARNING: DENMP: can't reach specified precision
  Number of Electrons is NELECT =   399.999999999859     
 entering main loop
       N       E                     dE             d eps       ncg     rms          ort
DAV:   1     0.345323297258E+05    0.34532E+05   -0.11452E+06  3584   0.486E+03
DAV:   2     0.854630693038E+04   -0.25986E+05   -0.25249E+05  3584   0.168E+03
DAV:   3     0.178161774698E+04   -0.67647E+04   -0.66598E+04  3584   0.498E+02
DAV:   4     0.437209998004E+03   -0.13444E+04   -0.12873E+04  3584   0.207E+02
DAV:   5     0.274183767733E+03   -0.16303E+03   -0.16047E+03  3584   0.773E+01
 gam= 0.000 g(H,U,f)=  0.103E+03 0.517E+01 0.000E+00 ort(H,U,f) = 0.000E+00 0.000E+00 0.000E+00
SDA:   6    -0.449710729489E+03   -0.72389E+03   -0.16047E+03  3584   0.108E+03 0.000E+00
 gam= 0.000 trial= 0.400  step= 0.337 mean= 0.400
 gam= 0.352 g(H,U,f)=  0.364E+02 0.170E+01 0.000E+00 ort(H,U,f) =-0.202E+01 0.263E+01 0.000E+00
CGA:   7    -0.467917964355E+03   -0.18207E+02   -0.18271E+02  3584   0.381E+02 0.604E+00
 gam= 0.352 trial= 0.397  step= 0.392 mean= 0.397
 gam= 0.211 g(H,U,f)=  0.762E+01 0.408E+00 0.104E-13 ort(H,U,f) =-0.998E+00 0.100E+01 0.225E-13
CGA:   8    -0.475427220674E+03   -0.75093E+01   -0.75095E+01  3584   0.803E+01 0.591E-02
 gam= 0.211 trial= 0.397  step= 0.669 mean= 0.397
 gam= 0.334 g(H,U,f)=  0.254E+01 0.152E+00 0.000E+00 ort(H,U,f) =-0.352E+00 0.342E+00 0.000E+00
CGA:   9    -0.478115652294E+03   -0.26884E+01   -0.26883E+01  3584   0.269E+01-0.104E-01
 gam= 0.334 trial= 0.410  step= 0.636 mean= 0.410
 gam= 0.367 g(H,U,f)=  0.942E+00 0.454E-01 0.000E+00 ort(H,U,f) =-0.141E+00 0.133E+00 0.000E+00
CGA:  10    -0.478967795819E+03   -0.85214E+00   -0.85307E+00  3584   0.987E+00-0.843E-02
 gam= 0.367 trial= 0.422  step= 0.439 mean= 0.422
 gam= 0.403 g(H,U,f)=  0.379E+00 0.189E-01 0.000E+00 ort(H,U,f) =-0.551E-01 0.537E-01 0.000E+00
CGA:  11    -0.479183608226E+03   -0.21581E+00   -0.21583E+00  3584   0.398E+00-0.148E-02
 gam= 0.403 trial= 0.422  step= 0.548 mean= 0.422
 gam= 0.249 g(H,U,f)=  0.950E-01 0.419E-02 0.000E+00 ort(H,U,f) =-0.186E-01 0.169E-01 0.000E+00
CGA:  12    -0.479292327991E+03   -0.10872E+00   -0.10883E+00  3584   0.992E-01-0.164E-02
 gam= 0.249 trial= 0.429  step= 0.685 mean= 0.429
 gam= 0.303 g(H,U,f)=  0.290E-01 0.100E-02 0.000E+00 ort(H,U,f) =-0.421E-02 0.378E-02 0.000E+00
CGA:  13    -0.479326109888E+03   -0.33782E-01   -0.33842E-01  3584   0.300E-01-0.435E-03
 gam= 0.303 trial= 0.441  step= 0.654 mean= 0.441
 gam= 0.383 g(H,U,f)=  0.112E-01 0.282E-03 0.000E+00 ort(H,U,f) =-0.102E-02 0.976E-03 0.000E+00
CGA:  14    -0.479335887933E+03   -0.97780E-02   -0.97839E-02  3584   0.115E-01-0.460E-04
 gam= 0.383 trial= 0.452  step= 0.473 mean= 0.452
 gam= 0.511 g(H,U,f)=  0.579E-02 0.832E-04 0.000E+00 ort(H,U,f) =-0.471E-03 0.238E-03 0.000E+00
CGA:  15    -0.479338599968E+03   -0.27120E-02   -0.27145E-02  3584   0.587E-02-0.233E-03
 gam= 0.511 trial= 0.453  step= 0.480 mean= 0.453
 gam= 0.300 g(H,U,f)=  0.173E-02 0.295E-04 0.000E+00 ort(H,U,f) =-0.237E-04 0.706E-04 0.000E+00
CGA:  16    -0.479339981025E+03   -0.13811E-02   -0.13805E-02  3584   0.176E-02 0.469E-04
 gam= 0.300 trial= 0.454  step= 0.742 mean= 0.454
 gam= 0.381 g(H,U,f)=  0.661E-03 0.116E-04 0.000E+00 ort(H,U,f) =-0.568E-04 0.480E-05 0.000E+00
CGA:  17    -0.479340633242E+03   -0.65222E-03   -0.65976E-03  3584   0.672E-03-0.520E-04
 gam= 0.381 trial= 0.469  step= 0.685 mean= 0.469
 gam= 0.372 g(H,U,f)=  0.243E-03 0.646E-05 0.407E-21 ort(H,U,f) =-0.882E-06 0.371E-05 0.522E-21
CGA:  18    -0.479340857060E+03   -0.22382E-03   -0.22353E-03  3584   0.250E-03 0.283E-05
 gam= 0.372 trial= 0.480  step= 0.657 mean= 0.480
 gam= 0.351 g(H,U,f)=  0.845E-04 0.339E-05 0.000E+00 ort(H,U,f) =-0.189E-05 0.413E-05 0.000E+00
CGA:  19    -0.479340939756E+03   -0.82696E-04   -0.82500E-04  3584   0.878E-04 0.225E-05
 gam= 0.351 trial= 0.489  step= 0.647 mean= 0.489
 gam= 0.358 g(H,U,f)=  0.301E-04 0.137E-05 0.000E+00 ort(H,U,f) = 0.374E-05 0.257E-05 0.000E+00
CGA:  20    -0.479340968925E+03   -0.29169E-04   -0.28670E-04  3584   0.314E-04 0.631E-05
 gam= 0.358 trial= 0.496  step= 0.811 mean= 0.496
 gam= 1.066 g(H,U,f)=  0.330E-04 0.474E-06 0.000E+00 ort(H,U,f) =-0.908E-05 0.106E-05 0.000E+00
CGA:  21    -0.479340981318E+03   -0.12393E-04   -0.13653E-04  3584   0.335E-04-0.802E-05
 gam= 1.066 trial= 0.512  step= 0.290 mean= 0.512
 gam= 0.358 g(H,U,f)=  0.119E-04 0.130E-06 0.000E+00 ort(H,U,f) = 0.332E-05 0.589E-06 0.000E+00
CGA:  22    -0.479340984508E+03   -0.31898E-05   -0.36229E-05  3584   0.120E-04 0.390E-05
 gam= 0.358 trial= 0.501  step= 0.271 mean= 0.501
 gam= 0.560 g(H,U,f)=  0.664E-05 0.815E-07 0.000E+00 ort(H,U,f) = 0.244E-05 0.136E-06 0.000E+00
CGA:  23    -0.479340986030E+03   -0.15218E-05   -0.18185E-05  3584   0.672E-05 0.258E-05
 gam= 0.560 trial= 0.490  step= 0.429 mean= 0.490
 gam= 0.510 g(H,U,f)=  0.339E-05 0.351E-07 0.000E+00 ort(H,U,f) =-0.140E-05 0.362E-07 0.000E+00
CGA:  24    -0.479340987821E+03   -0.17915E-05   -0.17500E-05  3584   0.342E-05-0.136E-05
 gam= 0.510 trial= 0.487  step= 0.716 mean= 0.487
 gam= 0.000 g(H,U,f)=  0.587E-05 0.293E-07 0.000E+00 ort(H,U,f) =-0.284E-05-0.166E-07 0.000E+00
CGA:  25    -0.479340988470E+03   -0.64866E-06   -0.97765E-06  3584   0.590E-05-0.286E-05
 gam= 0.000 trial= 0.498  step= 0.204 mean= 0.498
 gam= 0.184 g(H,U,f)=  0.106E-05 0.213E-07 0.000E+00 ort(H,U,f) = 0.165E-05 0.200E-07 0.000E+00
CGA:  26    -0.479340988827E+03   -0.35753E-06   -0.60290E-06  3584   0.109E-05 0.167E-05
 gam= 0.184 trial= 0.483  step= 0.322 mean= 0.483
 gam= 0.483 g(H,U,f)=  0.506E-06 0.177E-07 0.000E+00 ort(H,U,f) = 0.322E-06 0.215E-07 0.000E+00
CGA:  27    -0.479340989024E+03   -0.19665E-06   -0.22430E-06  3584   0.524E-06 0.343E-06
 gam= 0.483 trial= 0.475  step=-1.363 mean= 0.475
 BOPT < 0, no correction made
 gam= 0.531 g(H,U,f)=  0.272E-06 0.656E-08 0.786-306 ort(H,U,f) =-0.206E-06 0.164E-07 0.219-305
CGA:  28    -0.479340989409E+03   -0.38479E-06    0.46979E-06  3584   0.278E-06-0.190E-06
 gam= 0.531 trial= 0.475  step= 0.258 mean= 0.475
 gam= 0.680 g(H,U,f)=  0.185E-06 0.380E-08 0.242-253 ort(H,U,f) = 0.632E-07 0.117E-07 0.798-253
CGA:  29    -0.479340989424E+03   -0.14868E-07   -0.22941E-07  3584   0.189E-06 0.749E-07
 gam= 0.680 trial= 0.464  step= 0.133 mean= 0.464
 gam= 0.000 g(H,U,f)=  0.116E-06 0.277E-08 0.584-224 ort(H,U,f) = 0.144E-06 0.101E-07 0.222-223
CGA:  30    -0.479340989414E+03    0.97170E-08   -0.15927E-07  3584   0.119E-06 0.154E-06
 gam= 0.000 trial= 0.448  step= 0.622 mean= 0.448
 gam= 0.270 g(H,U,f)=  0.304E-07 0.157E-08 0.517-172 ort(H,U,f) = 0.108E-07 0.206E-08 0.666-172
CGA:  31    -0.479340989452E+03   -0.37802E-07   -0.36883E-07  3584   0.320E-07 0.128E-07
 gam= 0.270 trial= 0.457  step= 0.223 mean= 0.457
 gam= 0.000 g(H,U,f)=  0.153E-07 0.125E-08 0.389-151 ort(H,U,f) = 0.210E-07 0.189E-08 0.590-151
CGA:  32    -0.479340989453E+03   -0.12515E-08   -0.39495E-08  3584   0.166E-07 0.229E-07
 gam= 0.000 trial= 0.445  step=-0.173 mean= 0.445
 BOPT < 0, no correction made
   1 F= -.47934099E+03 E0= -.47934099E+03  d E =-.305409-119
Application 22296064 resources: utime ~22636127s, stime ~30418s, Rss ~383984, inblocks ~18196735, outblocks ~10956847
