       N       E                     dE             d eps       ncg     rms          ort
DAV:   1     0.345323297258E+05    0.34532E+05   -0.11452E+06  3584   0.486E+03
DAV:   2     0.854630693038E+04   -0.25986E+05   -0.25249E+05  3584   0.168E+03
DAV:   3     0.178161774698E+04   -0.67647E+04   -0.66598E+04  3584   0.498E+02
DAV:   4     0.437209998004E+03   -0.13444E+04   -0.12873E+04  3584   0.207E+02
DAV:   5     0.274183767733E+03   -0.16303E+03   -0.16047E+03  3584   0.773E+01
SDA:   6    -0.449710729489E+03   -0.72389E+03   -0.16047E+03  3584   0.108E+03 0.000E+00
CGA:   7    -0.467917964355E+03   -0.18207E+02   -0.18271E+02  3584   0.381E+02 0.604E+00
CGA:   8    -0.475427220674E+03   -0.75093E+01   -0.75095E+01  3584   0.803E+01 0.591E-02
CGA:   9    -0.478115652294E+03   -0.26884E+01   -0.26883E+01  3584   0.269E+01-0.104E-01
CGA:  10    -0.478967795819E+03   -0.85214E+00   -0.85307E+00  3584   0.987E+00-0.843E-02
CGA:  11    -0.479183608226E+03   -0.21581E+00   -0.21583E+00  3584   0.398E+00-0.148E-02
CGA:  12    -0.479292327991E+03   -0.10872E+00   -0.10883E+00  3584   0.992E-01-0.164E-02
CGA:  13    -0.479326109888E+03   -0.33782E-01   -0.33842E-01  3584   0.300E-01-0.435E-03
CGA:  14    -0.479335887933E+03   -0.97780E-02   -0.97839E-02  3584   0.115E-01-0.460E-04
CGA:  15    -0.479338599968E+03   -0.27120E-02   -0.27145E-02  3584   0.587E-02-0.233E-03
CGA:  16    -0.479339981025E+03   -0.13811E-02   -0.13805E-02  3584   0.176E-02 0.469E-04
CGA:  17    -0.479340633242E+03   -0.65222E-03   -0.65976E-03  3584   0.672E-03-0.520E-04
CGA:  18    -0.479340857060E+03   -0.22382E-03   -0.22353E-03  3584   0.250E-03 0.283E-05
CGA:  19    -0.479340939756E+03   -0.82696E-04   -0.82500E-04  3584   0.878E-04 0.225E-05
CGA:  20    -0.479340968925E+03   -0.29169E-04   -0.28670E-04  3584   0.314E-04 0.631E-05
CGA:  21    -0.479340981318E+03   -0.12393E-04   -0.13653E-04  3584   0.335E-04-0.802E-05
CGA:  22    -0.479340984508E+03   -0.31898E-05   -0.36229E-05  3584   0.120E-04 0.390E-05
CGA:  23    -0.479340986030E+03   -0.15218E-05   -0.18185E-05  3584   0.672E-05 0.258E-05
CGA:  24    -0.479340987821E+03   -0.17915E-05   -0.17500E-05  3584   0.342E-05-0.136E-05
CGA:  25    -0.479340988470E+03   -0.64866E-06   -0.97765E-06  3584   0.590E-05-0.286E-05
CGA:  26    -0.479340988827E+03   -0.35753E-06   -0.60290E-06  3584   0.109E-05 0.167E-05
CGA:  27    -0.479340989024E+03   -0.19665E-06   -0.22430E-06  3584   0.524E-06 0.343E-06
CGA:  28    -0.479340989409E+03   -0.38479E-06    0.46979E-06  3584   0.278E-06-0.190E-06
CGA:  29    -0.479340989424E+03   -0.14868E-07   -0.22941E-07  3584   0.189E-06 0.749E-07
CGA:  30    -0.479340989414E+03    0.97170E-08   -0.15927E-07  3584   0.119E-06 0.154E-06
CGA:  31    -0.479340989452E+03   -0.37802E-07   -0.36883E-07  3584   0.320E-07 0.128E-07
CGA:  32    -0.479340989453E+03   -0.12515E-08   -0.39495E-08  3584   0.166E-07 0.229E-07
   1 F= -.47934099E+03 E0= -.47934099E+03  d E =-.305409-119
