   2   2   1   0
  0.3405476E+02  0.4583961E-09  0.4583961E-09  0.4583961E-09  0.5000000E-15
  1.000000000000000E-004
  CAR 
 Name                                    
     15.72879569    -10.13423505  301      2.37700607      1.00000000
    -10.134  0.0000E+00  0.0000E+00
    -10.048  0.0000E+00  0.0000E+00
     -9.962  0.0000E+00  0.0000E+00
     -9.876  0.0000E+00  0.0000E+00
     -9.789  0.0000E+00  0.0000E+00
     -9.703  0.0000E+00  0.0000E+00
     -9.617  0.0000E+00  0.0000E+00
     -9.531  0.0000E+00  0.0000E+00
     -9.445  0.0000E+00  0.0000E+00
     -9.358  0.0000E+00  0.0000E+00
     -9.272  0.0000E+00  0.0000E+00
     -9.186  0.0000E+00  0.0000E+00
     -9.100  0.0000E+00  0.0000E+00
     -9.014  0.4591E-15  0.3958E-16
     -8.927  0.1074E+00  0.9259E-02
     -8.841  0.8240E+00  0.8029E-01
     -8.755  0.6440E+00  0.1389E+00
     -8.669  0.1289E+01  0.2500E+00
     -8.582  0.3437E+01  0.5463E+00
     -8.496  0.7524E+01  0.1195E+01
     -8.410  0.6594E+01  0.1874E+01
     -8.324  0.1459E+01  0.2000E+01
     -8.238  0.0000E+00  0.2000E+01
     -8.151  0.0000E+00  0.2000E+01
     -8.065  0.0000E+00  0.2000E+01
     -7.979  0.0000E+00  0.2000E+01
     -7.893  0.0000E+00  0.2000E+01
     -7.807  0.0000E+00  0.2000E+01
     -7.720  0.0000E+00  0.2000E+01
     -7.634  0.0000E+00  0.2000E+01
     -7.548  0.0000E+00  0.2000E+01
     -7.462  0.0000E+00  0.2000E+01
     -7.376  0.0000E+00  0.2000E+01
     -7.289  0.0000E+00  0.2000E+01
     -7.203  0.0000E+00  0.2000E+01
     -7.117  0.0000E+00  0.2000E+01
     -7.031  0.0000E+00  0.2000E+01
     -6.944  0.0000E+00  0.2000E+01
     -6.858  0.0000E+00  0.2000E+01
     -6.772  0.0000E+00  0.2000E+01
     -6.686  0.0000E+00  0.2000E+01
     -6.600  0.0000E+00  0.2000E+01
     -6.513  0.0000E+00  0.2000E+01
     -6.427  0.0000E+00  0.2000E+01
     -6.341  0.0000E+00  0.2000E+01
     -6.255  0.0000E+00  0.2000E+01
     -6.169  0.0000E+00  0.2000E+01
     -6.082  0.0000E+00  0.2000E+01
     -5.996  0.0000E+00  0.2000E+01
     -5.910  0.0000E+00  0.2000E+01
     -5.824  0.3169E+00  0.2027E+01
     -5.738  0.2339E+02  0.4048E+01
     -5.651  0.2285E+02  0.6196E+01
     -5.565  0.1763E+02  0.7742E+01
     -5.479  0.3028E+02  0.1051E+02
     -5.393  0.2349E+00  0.1057E+02
     -5.306  0.1008E-01  0.1060E+02
     -5.220  0.5446E+01  0.1107E+02
     -5.134  0.4715E+01  0.1149E+02
     -5.048  0.4192E+01  0.1189E+02
     -4.962  0.1285E+01  0.1200E+02
     -4.875  0.0000E+00  0.1200E+02
     -4.789  0.0000E+00  0.1200E+02
     -4.703  0.0000E+00  0.1200E+02
     -4.617  0.0000E+00  0.1200E+02
     -4.531  0.0000E+00  0.1200E+02
     -4.444  0.0000E+00  0.1200E+02
     -4.358  0.0000E+00  0.1200E+02
     -4.272  0.0000E+00  0.1200E+02
     -4.186  0.0000E+00  0.1200E+02
     -4.100  0.0000E+00  0.1200E+02
     -4.013  0.0000E+00  0.1200E+02
     -3.927  0.0000E+00  0.1200E+02
     -3.841  0.0000E+00  0.1200E+02
     -3.755  0.0000E+00  0.1200E+02
     -3.668  0.0000E+00  0.1200E+02
     -3.582  0.0000E+00  0.1200E+02
     -3.496  0.0000E+00  0.1200E+02
     -3.410  0.0000E+00  0.1200E+02
     -3.324  0.0000E+00  0.1200E+02
     -3.237  0.0000E+00  0.1200E+02
     -3.151  0.0000E+00  0.1200E+02
     -3.065  0.0000E+00  0.1200E+02
     -2.979  0.0000E+00  0.1200E+02
     -2.893  0.0000E+00  0.1200E+02
     -2.806  0.0000E+00  0.1200E+02
     -2.720  0.0000E+00  0.1200E+02
     -2.634  0.0000E+00  0.1200E+02
     -2.548  0.0000E+00  0.1200E+02
     -2.462  0.0000E+00  0.1200E+02
     -2.375  0.0000E+00  0.1200E+02
     -2.289  0.2829E-10  0.1200E+02
     -2.203  0.4296E+00  0.1204E+02
     -2.117  0.3859E-01  0.1204E+02
     -2.030  0.1091E+01  0.1213E+02
     -1.944  0.4257E+01  0.1267E+02
     -1.858  0.2578E+01  0.1295E+02
     -1.772  0.1660E-01  0.1296E+02
     -1.686  0.2561E+01  0.1318E+02
     -1.599  0.1409E-01  0.1318E+02
     -1.513  0.2564E+01  0.1340E+02
     -1.427  0.1003E-09  0.1340E+02
     -1.341  0.8592E+00  0.1347E+02
     -1.255  0.5987E+00  0.1352E+02
     -1.168  0.0000E+00  0.1353E+02
     -1.082  0.0000E+00  0.1353E+02
     -0.996  0.0000E+00  0.1353E+02
     -0.910  0.2219E+01  0.1372E+02
     -0.824  0.0000E+00  0.1375E+02
     -0.737  0.0000E+00  0.1375E+02
     -0.651  0.0000E+00  0.1375E+02
     -0.565  0.2146E-15  0.1375E+02
     -0.479  0.1289E+01  0.1386E+02
     -0.392  0.1287E+01  0.1397E+02
     -0.306  0.0000E+00  0.1397E+02
     -0.220  0.2267E-06  0.1397E+02
     -0.134  0.2578E+01  0.1419E+02
     -0.048  0.7733E-10  0.1419E+02
      0.039  0.1414E+01  0.1432E+02
      0.125  0.3867E+01  0.1465E+02
      0.211  0.2452E+01  0.1486E+02
      0.297  0.1002E-14  0.1486E+02
      0.383  0.6444E+00  0.1492E+02
      0.470  0.2883E+01  0.1517E+02
      0.556  0.8437E+00  0.1528E+02
      0.642  0.7607E+01  0.1593E+02
      0.728  0.7467E+00  0.1600E+02
      0.814  0.0000E+00  0.1605E+02
      0.901  0.5298E+00  0.1609E+02
      0.987  0.3550E+01  0.1649E+02
      1.073  0.1887E-04  0.1649E+02
      1.159  0.5152E+01  0.1693E+02
      1.245  0.2577E+01  0.1716E+02
      1.332  0.0000E+00  0.1716E+02
      1.418  0.6523E-03  0.1716E+02
      1.504  0.3436E+01  0.1745E+02
      1.590  0.8794E-10  0.1745E+02
      1.677  0.3007E+01  0.1771E+02
      1.763  0.0000E+00  0.1771E+02
      1.849  0.1116E-13  0.1771E+02
      1.935  0.1289E+01  0.1782E+02
      2.021  0.4182E+00  0.1786E+02
      2.108  0.0000E+00  0.1797E+02
      2.194  0.0000E+00  0.1797E+02
      2.280  0.3212E+00  0.1800E+02
      2.366  0.0000E+00  0.1800E+02
      2.452  0.0000E+00  0.1800E+02
      2.539  0.0000E+00  0.1800E+02
      2.625  0.0000E+00  0.1800E+02
      2.711  0.0000E+00  0.1800E+02
      2.797  0.0000E+00  0.1800E+02
      2.883  0.6888E-02  0.1800E+02
      2.970  0.1005E+00  0.1801E+02
      3.056  0.0000E+00  0.1801E+02
      3.142  0.0000E+00  0.1801E+02
      3.228  0.0000E+00  0.1801E+02
      3.315  0.0000E+00  0.1801E+02
      3.401  0.0000E+00  0.1801E+02
      3.487  0.0000E+00  0.1801E+02
      3.573  0.0000E+00  0.1801E+02
      3.659  0.0000E+00  0.1801E+02
      3.746  0.0000E+00  0.1801E+02
      3.832  0.0000E+00  0.1801E+02
      3.918  0.3167E-09  0.1801E+02
      4.004  0.4910E+00  0.1805E+02
      4.090  0.1653E+01  0.1819E+02
      4.177  0.0000E+00  0.1819E+02
      4.263  0.0000E+00  0.1819E+02
      4.349  0.0000E+00  0.1819E+02
      4.435  0.0000E+00  0.1819E+02
      4.521  0.0000E+00  0.1819E+02
      4.608  0.0000E+00  0.1819E+02
      4.694  0.6472E+00  0.1825E+02
      4.780  0.3152E+00  0.1828E+02
      4.866  0.1815E+01  0.1843E+02
      4.953  0.2676E+01  0.1870E+02
      5.039  0.6334E+01  0.1926E+02
      5.125  0.0000E+00  0.1936E+02
      5.211  0.1276E+01  0.1947E+02
      5.297  0.4343E+00  0.1951E+02
      5.384  0.0000E+00  0.1953E+02
      5.470  0.0000E+00  0.1953E+02
      5.556  0.0000E+00  0.1953E+02
      5.642  0.0000E+00  0.1953E+02
      5.728  0.9829E-04  0.1953E+02
      5.815  0.2578E+01  0.1975E+02
      5.901  0.6941E+01  0.2035E+02
      5.987  0.1187E+01  0.2047E+02
      6.073  0.0000E+00  0.2047E+02
      6.159  0.2923E-04  0.2047E+02
      6.246  0.2578E+01  0.2069E+02
      6.332  0.2578E+01  0.2092E+02
      6.418  0.0000E+00  0.2092E+02
      6.504  0.0000E+00  0.2092E+02
      6.591  0.0000E+00  0.2092E+02
      6.677  0.0000E+00  0.2092E+02
      6.763  0.1995E+01  0.2109E+02
      6.849  0.3008E+01  0.2143E+02
      6.935  0.8564E+00  0.2157E+02
      7.022  0.0000E+00  0.2157E+02
      7.108  0.3352E+01  0.2186E+02
      7.194  0.0000E+00  0.2194E+02
      7.280  0.3597E+00  0.2198E+02
      7.366  0.2125E+01  0.2224E+02
      7.453  0.4265E+01  0.2261E+02
      7.539  0.0000E+00  0.2261E+02
      7.625  0.1682E-02  0.2261E+02
      7.711  0.1308E+01  0.2272E+02
      7.797  0.1733E+01  0.2287E+02
      7.884  0.4690E+01  0.2328E+02
      7.970  0.2577E+01  0.2350E+02
      8.056  0.1305E-12  0.2350E+02
      8.142  0.2578E+01  0.2372E+02
      8.229  0.0000E+00  0.2372E+02
      8.315  0.2574E+01  0.2394E+02
      8.401  0.8408E+00  0.2402E+02
      8.487  0.4176E+00  0.2405E+02
      8.573  0.2160E+01  0.2424E+02
      8.660  0.0000E+00  0.2424E+02
      8.746  0.2576E+01  0.2446E+02
      8.832  0.4852E+00  0.2450E+02
      8.918  0.0000E+00  0.2457E+02
      9.004  0.2486E-01  0.2458E+02
      9.091  0.1268E+01  0.2469E+02
      9.177  0.5581E+01  0.2517E+02
      9.263  0.4879E-10  0.2517E+02
      9.349  0.6444E+00  0.2522E+02
      9.435  0.2525E+01  0.2544E+02
      9.522  0.7483E+00  0.2551E+02
      9.608  0.2632E+01  0.2574E+02
      9.694  0.2442E+01  0.2595E+02
      9.780  0.0000E+00  0.2595E+02
      9.867  0.4484E+00  0.2599E+02
      9.953  0.3418E+01  0.2629E+02
     10.039  0.1139E+01  0.2639E+02
     10.125  0.1705E+01  0.2666E+02
     10.211  0.0000E+00  0.2681E+02
     10.298  0.4897E-11  0.2681E+02
     10.384  0.2578E+01  0.2703E+02
     10.470  0.9560E-08  0.2703E+02
     10.556  0.8592E+00  0.2710E+02
     10.642  0.1934E+01  0.2727E+02
     10.729  0.2509E-01  0.2747E+02
     10.815  0.4045E+00  0.2751E+02
     10.901  0.1768E-04  0.2751E+02
     10.987  0.2900E+01  0.2776E+02
     11.073  0.1716E+01  0.2791E+02
     11.160  0.1301E+01  0.2802E+02
     11.246  0.3740E+01  0.2834E+02
     11.332  0.3867E+01  0.2869E+02
     11.418  0.0000E+00  0.2869E+02
     11.505  0.0000E+00  0.2869E+02
     11.591  0.2113E+00  0.2870E+02
     11.677  0.0000E+00  0.2870E+02
     11.763  0.1274E+01  0.2881E+02
     11.849  0.6457E+00  0.2887E+02
     11.936  0.4042E+01  0.2922E+02
     12.022  0.2401E+01  0.2943E+02
     12.108  0.1320E-01  0.2943E+02
     12.194  0.2564E+01  0.2965E+02
     12.280  0.0000E+00  0.2965E+02
     12.367  0.0000E+00  0.2965E+02
     12.453  0.2574E+01  0.2987E+02
     12.539  0.4080E+01  0.3022E+02
     12.625  0.4172E+01  0.3058E+02
     12.711  0.0000E+00  0.3067E+02
     12.798  0.0000E+00  0.3067E+02
     12.884  0.1370E+01  0.3078E+02
     12.970  0.0000E+00  0.3089E+02
     13.056  0.3215E+00  0.3092E+02
     13.142  0.0000E+00  0.3092E+02
     13.229  0.1599E-11  0.3092E+02
     13.315  0.1289E+01  0.3103E+02
     13.401  0.8349E+00  0.3110E+02
     13.487  0.5871E-01  0.3126E+02
     13.574  0.1230E+01  0.3136E+02
     13.660  0.4607E+01  0.3176E+02
     13.746  0.1565E+00  0.3182E+02
     13.832  0.0000E+00  0.3183E+02
     13.918  0.0000E+00  0.3183E+02
     14.005  0.0000E+00  0.3183E+02
     14.091  0.5228E+00  0.3188E+02
     14.177  0.0000E+00  0.3189E+02
     14.263  0.3905E-11  0.3189E+02
     14.349  0.1289E+01  0.3200E+02
     14.436  0.0000E+00  0.3200E+02
     14.522  0.0000E+00  0.3200E+02
     14.608  0.0000E+00  0.3200E+02
     14.694  0.0000E+00  0.3200E+02
     14.780  0.0000E+00  0.3200E+02
     14.867  0.0000E+00  0.3200E+02
     14.953  0.0000E+00  0.3200E+02
     15.039  0.0000E+00  0.3200E+02
     15.125  0.0000E+00  0.3200E+02
     15.212  0.0000E+00  0.3200E+02
     15.298  0.0000E+00  0.3200E+02
     15.384  0.0000E+00  0.3200E+02
     15.470  0.0000E+00  0.3200E+02
     15.556  0.0000E+00  0.3200E+02
     15.643  0.0000E+00  0.3200E+02
     15.729  0.0000E+00  0.3200E+02
     15.72879569    -10.13423505  301      2.37700607      1.00000000
    -10.134  0.0000E+00  0.0000E+00  0.0000E+00
    -10.048  0.0000E+00  0.0000E+00  0.0000E+00
     -9.962  0.0000E+00  0.0000E+00  0.0000E+00
     -9.876  0.0000E+00  0.0000E+00  0.0000E+00
     -9.789  0.0000E+00  0.0000E+00  0.0000E+00
     -9.703  0.0000E+00  0.0000E+00  0.0000E+00
     -9.617  0.0000E+00  0.0000E+00  0.0000E+00
     -9.531  0.0000E+00  0.0000E+00  0.0000E+00
     -9.445  0.0000E+00  0.0000E+00  0.0000E+00
     -9.358  0.0000E+00  0.0000E+00  0.0000E+00
     -9.272  0.0000E+00  0.0000E+00  0.0000E+00
     -9.186  0.0000E+00  0.0000E+00  0.0000E+00
     -9.100  0.0000E+00  0.0000E+00  0.0000E+00
     -9.014  0.2900E-16  0.2559E-27  0.1203E-26
     -8.927  0.6785E-02  0.5988E-13  0.2815E-12
     -8.841  0.4394E-01  0.2073E-02  0.1278E-01
     -8.755  0.3213E-01  0.2183E-02  0.1357E-01
     -8.669  0.4978E-01  0.7711E-02  0.5437E-01
     -8.582  0.1051E+00  0.2661E-01  0.2011E+00
     -8.496  0.1163E+00  0.8140E-01  0.6979E+00
     -8.410  0.2900E-01  0.8619E-01  0.7850E+00
     -8.324  0.1907E-12  0.2035E-01  0.1895E+00
     -8.238  0.0000E+00  0.0000E+00  0.0000E+00
     -8.151  0.0000E+00  0.0000E+00  0.0000E+00
     -8.065  0.0000E+00  0.0000E+00  0.0000E+00
     -7.979  0.0000E+00  0.0000E+00  0.0000E+00
     -7.893  0.0000E+00  0.0000E+00  0.0000E+00
     -7.807  0.0000E+00  0.0000E+00  0.0000E+00
     -7.720  0.0000E+00  0.0000E+00  0.0000E+00
     -7.634  0.0000E+00  0.0000E+00  0.0000E+00
     -7.548  0.0000E+00  0.0000E+00  0.0000E+00
     -7.462  0.0000E+00  0.0000E+00  0.0000E+00
     -7.376  0.0000E+00  0.0000E+00  0.0000E+00
     -7.289  0.0000E+00  0.0000E+00  0.0000E+00
     -7.203  0.0000E+00  0.0000E+00  0.0000E+00
     -7.117  0.0000E+00  0.0000E+00  0.0000E+00
     -7.031  0.0000E+00  0.0000E+00  0.0000E+00
     -6.944  0.0000E+00  0.0000E+00  0.0000E+00
     -6.858  0.0000E+00  0.0000E+00  0.0000E+00
     -6.772  0.0000E+00  0.0000E+00  0.0000E+00
     -6.686  0.0000E+00  0.0000E+00  0.0000E+00
     -6.600  0.0000E+00  0.0000E+00  0.0000E+00
     -6.513  0.0000E+00  0.0000E+00  0.0000E+00
     -6.427  0.0000E+00  0.0000E+00  0.0000E+00
     -6.341  0.0000E+00  0.0000E+00  0.0000E+00
     -6.255  0.0000E+00  0.0000E+00  0.0000E+00
     -6.169  0.0000E+00  0.0000E+00  0.0000E+00
     -6.082  0.0000E+00  0.0000E+00  0.0000E+00
     -5.996  0.0000E+00  0.0000E+00  0.0000E+00
     -5.910  0.0000E+00  0.0000E+00  0.0000E+00
     -5.824  0.6207E-15  0.1345E-03  0.2854E+00
     -5.738  0.1063E-01  0.1147E-01  0.2125E+02
     -5.651  0.5527E-02  0.1270E-01  0.2101E+02
     -5.565  0.2745E-01  0.8485E-03  0.1633E+02
     -5.479  0.2899E-01  0.1718E-02  0.2843E+02
     -5.393  0.2478E-02  0.2975E-03  0.1985E+00
     -5.306  0.1054E-03  0.1420E-04  0.8509E-02
     -5.220  0.5565E-01  0.8696E-02  0.4577E+01
     -5.134  0.3017E-01  0.1239E-01  0.3941E+01
     -5.048  0.1528E-01  0.1358E-01  0.3490E+01
     -4.962  0.5560E-15  0.5589E-02  0.1061E+01
     -4.875  0.0000E+00  0.0000E+00  0.0000E+00
     -4.789  0.0000E+00  0.0000E+00  0.0000E+00
     -4.703  0.0000E+00  0.0000E+00  0.0000E+00
     -4.617  0.0000E+00  0.0000E+00  0.0000E+00
     -4.531  0.0000E+00  0.0000E+00  0.0000E+00
     -4.444  0.0000E+00  0.0000E+00  0.0000E+00
     -4.358  0.0000E+00  0.0000E+00  0.0000E+00
     -4.272  0.0000E+00  0.0000E+00  0.0000E+00
     -4.186  0.0000E+00  0.0000E+00  0.0000E+00
     -4.100  0.0000E+00  0.0000E+00  0.0000E+00
     -4.013  0.0000E+00  0.0000E+00  0.0000E+00
     -3.927  0.0000E+00  0.0000E+00  0.0000E+00
     -3.841  0.0000E+00  0.0000E+00  0.0000E+00
     -3.755  0.0000E+00  0.0000E+00  0.0000E+00
     -3.668  0.0000E+00  0.0000E+00  0.0000E+00
     -3.582  0.0000E+00  0.0000E+00  0.0000E+00
     -3.496  0.0000E+00  0.0000E+00  0.0000E+00
     -3.410  0.0000E+00  0.0000E+00  0.0000E+00
     -3.324  0.0000E+00  0.0000E+00  0.0000E+00
     -3.237  0.0000E+00  0.0000E+00  0.0000E+00
     -3.151  0.0000E+00  0.0000E+00  0.0000E+00
     -3.065  0.0000E+00  0.0000E+00  0.0000E+00
     -2.979  0.0000E+00  0.0000E+00  0.0000E+00
     -2.893  0.0000E+00  0.0000E+00  0.0000E+00
     -2.806  0.0000E+00  0.0000E+00  0.0000E+00
     -2.720  0.0000E+00  0.0000E+00  0.0000E+00
     -2.634  0.0000E+00  0.0000E+00  0.0000E+00
     -2.548  0.0000E+00  0.0000E+00  0.0000E+00
     -2.462  0.0000E+00  0.0000E+00  0.0000E+00
     -2.375  0.0000E+00  0.0000E+00  0.0000E+00
     -2.289  0.4695E-11  0.7431E-12  0.2650E-14
     -2.203  0.7130E-01  0.1129E-01  0.4024E-04
     -2.117  0.9473E-02  0.3985E-14  0.1325E-02
     -2.030  0.2327E+00  0.1302E-01  0.1966E-01
     -1.944  0.1026E+01  0.2741E-01  0.4214E-01
     -1.858  0.6065E+00  0.1042E-01  0.8435E-01
     -1.772  0.2915E-02  0.3664E-03  0.4380E-03
     -1.686  0.4496E+00  0.5651E-01  0.6756E-01
     -1.599  0.2922E-02  0.1619E-03  0.5565E-03
     -1.513  0.5318E+00  0.2946E-01  0.1013E+00
     -1.427  0.1452E-10  0.2814E-11  0.4224E-11
     -1.341  0.1244E+00  0.2411E-01  0.3620E-01
     -1.255  0.1230E+00  0.3820E-02  0.3898E-01
     -1.168  0.0000E+00  0.0000E+00  0.0000E+00
     -1.082  0.0000E+00  0.0000E+00  0.0000E+00
     -0.996  0.0000E+00  0.0000E+00  0.0000E+00
     -0.910  0.3613E+00  0.4405E-01  0.1270E+00
     -0.824  0.0000E+00  0.0000E+00  0.0000E+00
     -0.737  0.0000E+00  0.0000E+00  0.0000E+00
     -0.651  0.0000E+00  0.0000E+00  0.0000E+00
     -0.565  0.3238E-16  0.4666E-17  0.1292E-16
     -0.479  0.1944E+00  0.2801E-01  0.7756E-01
     -0.392  0.6240E-02  0.9253E-01  0.3848E-01
     -0.306  0.0000E+00  0.0000E+00  0.0000E+00
     -0.220  0.3825E-08  0.1541E-07  0.7578E-08
     -0.134  0.4348E-01  0.1752E+00  0.8615E-01
     -0.048  0.1801E-12  0.5304E-11  0.3099E-11
      0.039  0.3788E-02  0.9774E-01  0.5495E-01
      0.125  0.1717E-01  0.3014E+00  0.8205E-01
      0.211  0.3376E-01  0.1721E+00  0.7911E-01
      0.297  0.1300E-30  0.8074E-16  0.1868E-16
      0.383  0.2372E-11  0.5194E-01  0.1202E-01
      0.470  0.1187E+00  0.1666E+00  0.1242E+00
      0.556  0.9027E-01  0.2591E-01  0.4991E-01
      0.642  0.9021E-01  0.5380E+00  0.2614E+00
      0.728  0.3737E-16  0.5600E-01  0.2443E-01
      0.814  0.0000E+00  0.0000E+00  0.0000E+00
      0.901  0.1157E-02  0.3782E-01  0.2042E-01
      0.987  0.2638E-01  0.2389E+00  0.1537E+00
      1.073  0.4280E-06  0.1099E-05  0.9451E-06
      1.159  0.5845E-01  0.3277E+00  0.2383E+00
      1.245  0.1136E-13  0.1697E+00  0.1227E+00
      1.332  0.0000E+00  0.0000E+00  0.0000E+00
      1.418  0.1480E-18  0.4062E-04  0.3323E-04
      1.504  0.1130E-14  0.2138E+00  0.1746E+00
      1.590  0.3665E-25  0.4924E-11  0.5072E-11
      1.677  0.9035E-15  0.1658E+00  0.1781E+00
      1.763  0.0000E+00  0.0000E+00  0.0000E+00
      1.849  0.1429E-29  0.5200E-15  0.7394E-15
      1.935  0.1651E-15  0.6005E-01  0.8539E-01
      2.021  0.1082E-15  0.1667E-01  0.3036E-01
      2.108  0.0000E+00  0.0000E+00  0.0000E+00
      2.194  0.0000E+00  0.0000E+00  0.0000E+00
      2.280  0.4200E-14  0.8760E-02  0.2634E-01
      2.366  0.0000E+00  0.0000E+00  0.0000E+00
      2.452  0.0000E+00  0.0000E+00  0.0000E+00
      2.539  0.0000E+00  0.0000E+00  0.0000E+00
      2.625  0.0000E+00  0.0000E+00  0.0000E+00
      2.711  0.0000E+00  0.0000E+00  0.0000E+00
      2.797  0.0000E+00  0.0000E+00  0.0000E+00
      2.883  0.2106E-02  0.3817E-16  0.5802E-16
      2.970  0.3072E-01  0.5570E-15  0.8466E-15
      3.056  0.0000E+00  0.0000E+00  0.0000E+00
      3.142  0.0000E+00  0.0000E+00  0.0000E+00
      3.228  0.0000E+00  0.0000E+00  0.0000E+00
      3.315  0.0000E+00  0.0000E+00  0.0000E+00
      3.401  0.0000E+00  0.0000E+00  0.0000E+00
      3.487  0.0000E+00  0.0000E+00  0.0000E+00
      3.573  0.0000E+00  0.0000E+00  0.0000E+00
      3.659  0.0000E+00  0.0000E+00  0.0000E+00
      3.746  0.0000E+00  0.0000E+00  0.0000E+00
      3.832  0.0000E+00  0.0000E+00  0.0000E+00
      3.918  0.7739E-10  0.9772E-11  0.3145E-11
      4.004  0.1181E+00  0.1523E-01  0.4599E-02
      4.090  0.3717E+00  0.5890E-01  0.9111E-02
      4.177  0.0000E+00  0.0000E+00  0.0000E+00
      4.263  0.0000E+00  0.0000E+00  0.0000E+00
      4.349  0.0000E+00  0.0000E+00  0.0000E+00
      4.435  0.0000E+00  0.0000E+00  0.0000E+00
      4.521  0.0000E+00  0.0000E+00  0.0000E+00
      4.608  0.0000E+00  0.0000E+00  0.0000E+00
      4.694  0.1287E+00  0.6128E-02  0.1056E-01
      4.780  0.3337E-12  0.3007E-01  0.1163E-01
      4.866  0.3696E+00  0.6660E-01  0.2337E-01
      4.953  0.4971E+00  0.1092E+00  0.4724E-01
      5.039  0.1066E+01  0.2856E+00  0.1277E+00
      5.125  0.0000E+00  0.0000E+00  0.0000E+00
      5.211  0.1736E+00  0.7071E-01  0.3476E-01
      5.297  0.3890E-01  0.2284E-01  0.1229E-01
      5.384  0.0000E+00  0.0000E+00  0.0000E+00
      5.470  0.0000E+00  0.0000E+00  0.0000E+00
      5.556  0.0000E+00  0.0000E+00  0.0000E+00
      5.642  0.0000E+00  0.0000E+00  0.0000E+00
      5.728  0.2335E-04  0.1049E-05  0.1650E-05
      5.815  0.6124E+00  0.2753E-01  0.4326E-01
      5.901  0.1034E+01  0.3138E+00  0.1585E+00
      5.987  0.5239E-11  0.9477E-01  0.4820E-01
      6.073  0.0000E+00  0.0000E+00  0.0000E+00
      6.159  0.1326E-05  0.3715E-05  0.3670E-06
      6.246  0.1169E+00  0.3276E+00  0.3237E-01
      6.332  0.8894E-03  0.2910E+00  0.7136E-01
      6.418  0.0000E+00  0.0000E+00  0.0000E+00
      6.504  0.0000E+00  0.0000E+00  0.0000E+00
      6.591  0.0000E+00  0.0000E+00  0.0000E+00
      6.677  0.0000E+00  0.0000E+00  0.0000E+00
      6.763  0.1364E-02  0.1569E+00  0.6884E-01
      6.849  0.1032E+00  0.2917E+00  0.7734E-01
      6.935  0.4200E-01  0.1041E+00  0.1130E-01
      7.022  0.0000E+00  0.0000E+00  0.0000E+00
      7.108  0.3766E-01  0.4044E+00  0.8335E-01
      7.194  0.0000E+00  0.0000E+00  0.0000E+00
      7.280  0.3915E-01  0.7162E-02  0.5112E-02
      7.366  0.2030E-14  0.4200E+00  0.3768E-01
      7.453  0.2336E-03  0.5454E+00  0.1163E+00
      7.539  0.0000E+00  0.0000E+00  0.0000E+00
      7.625  0.5558E-05  0.1917E-03  0.3413E-04
      7.711  0.4254E-02  0.1512E+00  0.2637E-01
      7.797  0.3848E-14  0.3467E+00  0.2586E-01
      7.884  0.1137E-02  0.6046E+00  0.1374E+00
      7.970  0.1227E+00  0.2590E+00  0.4251E-01
      8.056  0.4475E-27  0.1908E-13  0.4161E-14
      8.142  0.8839E-14  0.3769E+00  0.8219E-01
      8.229  0.0000E+00  0.0000E+00  0.0000E+00
      8.315  0.3772E-14  0.4550E+00  0.5717E-01
      8.401  0.2867E-01  0.4662E-01  0.1313E-01
      8.487  0.1449E-01  0.2661E-01  0.9995E-02
      8.573  0.7496E-01  0.1376E+00  0.5169E-01
      8.660  0.0000E+00  0.0000E+00  0.0000E+00
      8.746  0.5424E-01  0.2071E+00  0.7801E-01
      8.832  0.1330E-14  0.6598E-01  0.1209E-01
      8.918  0.0000E+00  0.0000E+00  0.0000E+00
      9.004  0.1516E-14  0.3875E-02  0.5087E-03
      9.091  0.1493E-03  0.1973E+00  0.2595E-01
      9.177  0.1537E+00  0.4245E+00  0.1610E+00
      9.263  0.2389E-13  0.3409E-12  0.3142E-11
      9.349  0.3155E-03  0.4503E-02  0.4150E-01
      9.435  0.6471E-03  0.2607E+00  0.9660E-01
      9.522  0.5368E-01  0.2870E-02  0.2218E-01
      9.608  0.4113E-02  0.4618E+00  0.6952E-01
      9.694  0.6495E-03  0.4326E+00  0.5510E-01
      9.780  0.0000E+00  0.0000E+00  0.0000E+00
      9.867  0.6621E-15  0.6678E-01  0.1121E-01
      9.953  0.5375E-14  0.3226E+00  0.1534E+00
     10.039  0.1344E-01  0.8121E-01  0.4805E-01
     10.125  0.1486E-01  0.2195E+00  0.6461E-01
     10.211  0.0000E+00  0.0000E+00  0.0000E+00
     10.298  0.6152E-13  0.1694E-12  0.2032E-12
     10.384  0.3239E-01  0.8916E-01  0.1069E+00
     10.470  0.1141E-08  0.5779E-09  0.3728E-10
     10.556  0.1026E+00  0.5194E-01  0.3351E-02
     10.642  0.3991E-09  0.4955E-01  0.1385E+00
     10.729  0.2907E-02  0.2239E-04  0.5024E-05
     10.815  0.4686E-01  0.3609E-03  0.8099E-04
     10.901  0.1640E-06  0.1329E-05  0.5023E-06
     10.987  0.4899E-01  0.1938E+00  0.7506E-01
     11.073  0.1219E-11  0.6997E-01  0.1080E+00
     11.160  0.8780E-03  0.1223E+00  0.5919E-01
     11.246  0.5091E-01  0.2970E+00  0.1510E+00
     11.332  0.1691E+00  0.5017E+00  0.5557E-01
     11.418  0.0000E+00  0.0000E+00  0.0000E+00
     11.505  0.0000E+00  0.0000E+00  0.0000E+00
     11.591  0.1537E-09  0.7547E-09  0.2119E-01
     11.677  0.0000E+00  0.0000E+00  0.0000E+00
     11.763  0.2711E-02  0.1835E+00  0.4375E-01
     11.849  0.8577E-04  0.7241E-04  0.5722E-01
     11.936  0.2827E+00  0.2411E+00  0.7921E-01
     12.022  0.2041E-09  0.6901E-01  0.1524E+00
     12.108  0.7545E-03  0.4294E-03  0.3391E-03
     12.194  0.1466E+00  0.8342E-01  0.6589E-01
     12.280  0.0000E+00  0.0000E+00  0.0000E+00
     12.367  0.0000E+00  0.0000E+00  0.0000E+00
     12.453  0.6117E-04  0.3418E+00  0.1331E+00
     12.539  0.8049E-01  0.2072E+00  0.1470E+00
     12.625  0.3467E-03  0.2894E+00  0.1560E+00
     12.711  0.0000E+00  0.0000E+00  0.0000E+00
     12.798  0.0000E+00  0.0000E+00  0.0000E+00
     12.884  0.2009E-09  0.1065E+00  0.4298E-01
     12.970  0.0000E+00  0.0000E+00  0.0000E+00
     13.056  0.3412E-10  0.3413E-07  0.1791E-07
     13.142  0.0000E+00  0.0000E+00  0.0000E+00
     13.229  0.2238E-19  0.2393E-12  0.6081E-13
     13.315  0.1804E-07  0.1929E+00  0.4902E-01
     13.401  0.1483E-03  0.9175E-01  0.2962E-01
     13.487  0.3224E-03  0.4250E-03  0.3656E-02
     13.574  0.6754E-02  0.8905E-02  0.7659E-01
     13.660  0.4334E-01  0.6030E+00  0.1494E+00
     13.746  0.1181E-08  0.4554E-02  0.9482E-02
     13.832  0.0000E+00  0.0000E+00  0.0000E+00
     13.918  0.0000E+00  0.0000E+00  0.0000E+00
     14.005  0.0000E+00  0.0000E+00  0.0000E+00
     14.091  0.3104E-01  0.1019E+00  0.3349E-02
     14.177  0.0000E+00  0.0000E+00  0.0000E+00
     14.263  0.9888E-13  0.2964E-12  0.9968E-14
     14.349  0.3264E-01  0.9782E-01  0.3290E-02
     14.436  0.0000E+00  0.0000E+00  0.0000E+00
     14.522  0.0000E+00  0.0000E+00  0.0000E+00
     14.608  0.0000E+00  0.0000E+00  0.0000E+00
     14.694  0.0000E+00  0.0000E+00  0.0000E+00
     14.780  0.0000E+00  0.0000E+00  0.0000E+00
     14.867  0.0000E+00  0.0000E+00  0.0000E+00
     14.953  0.0000E+00  0.0000E+00  0.0000E+00
     15.039  0.0000E+00  0.0000E+00  0.0000E+00
     15.125  0.0000E+00  0.0000E+00  0.0000E+00
     15.212  0.0000E+00  0.0000E+00  0.0000E+00
     15.298  0.0000E+00  0.0000E+00  0.0000E+00
     15.384  0.0000E+00  0.0000E+00  0.0000E+00
     15.470  0.0000E+00  0.0000E+00  0.0000E+00
     15.556  0.0000E+00  0.0000E+00  0.0000E+00
     15.643  0.0000E+00  0.0000E+00  0.0000E+00
     15.729  0.0000E+00  0.0000E+00  0.0000E+00
     15.72879569    -10.13423505  301      2.37700607      1.00000000
    -10.134  0.0000E+00  0.0000E+00  0.0000E+00
    -10.048  0.0000E+00  0.0000E+00  0.0000E+00
     -9.962  0.0000E+00  0.0000E+00  0.0000E+00
     -9.876  0.0000E+00  0.0000E+00  0.0000E+00
     -9.789  0.0000E+00  0.0000E+00  0.0000E+00
     -9.703  0.0000E+00  0.0000E+00  0.0000E+00
     -9.617  0.0000E+00  0.0000E+00  0.0000E+00
     -9.531  0.0000E+00  0.0000E+00  0.0000E+00
     -9.445  0.0000E+00  0.0000E+00  0.0000E+00
     -9.358  0.0000E+00  0.0000E+00  0.0000E+00
     -9.272  0.0000E+00  0.0000E+00  0.0000E+00
     -9.186  0.0000E+00  0.0000E+00  0.0000E+00
     -9.100  0.0000E+00  0.0000E+00  0.0000E+00
     -9.014  0.2609E-15  0.3665E-27  0.3775E-27
     -8.927  0.6103E-01  0.8575E-13  0.8831E-13
     -8.841  0.4732E+00  0.1584E-03  0.1134E-05
     -8.755  0.3710E+00  0.1628E-03  0.2122E-06
     -8.669  0.7486E+00  0.3768E-03  0.4703E-05
     -8.582  0.2004E+01  0.9427E-03  0.1610E-04
     -8.496  0.4399E+01  0.1032E-02  0.4613E-04
     -8.410  0.3852E+01  0.2980E-03  0.1418E-04
     -8.324  0.8513E+00  0.2274E-08  0.8510E-06
     -8.238  0.0000E+00  0.0000E+00  0.0000E+00
     -8.151  0.0000E+00  0.0000E+00  0.0000E+00
     -8.065  0.0000E+00  0.0000E+00  0.0000E+00
     -7.979  0.0000E+00  0.0000E+00  0.0000E+00
     -7.893  0.0000E+00  0.0000E+00  0.0000E+00
     -7.807  0.0000E+00  0.0000E+00  0.0000E+00
     -7.720  0.0000E+00  0.0000E+00  0.0000E+00
     -7.634  0.0000E+00  0.0000E+00  0.0000E+00
     -7.548  0.0000E+00  0.0000E+00  0.0000E+00
     -7.462  0.0000E+00  0.0000E+00  0.0000E+00
     -7.376  0.0000E+00  0.0000E+00  0.0000E+00
     -7.289  0.0000E+00  0.0000E+00  0.0000E+00
     -7.203  0.0000E+00  0.0000E+00  0.0000E+00
     -7.117  0.0000E+00  0.0000E+00  0.0000E+00
     -7.031  0.0000E+00  0.0000E+00  0.0000E+00
     -6.944  0.0000E+00  0.0000E+00  0.0000E+00
     -6.858  0.0000E+00  0.0000E+00  0.0000E+00
     -6.772  0.0000E+00  0.0000E+00  0.0000E+00
     -6.686  0.0000E+00  0.0000E+00  0.0000E+00
     -6.600  0.0000E+00  0.0000E+00  0.0000E+00
     -6.513  0.0000E+00  0.0000E+00  0.0000E+00
     -6.427  0.0000E+00  0.0000E+00  0.0000E+00
     -6.341  0.0000E+00  0.0000E+00  0.0000E+00
     -6.255  0.0000E+00  0.0000E+00  0.0000E+00
     -6.169  0.0000E+00  0.0000E+00  0.0000E+00
     -6.082  0.0000E+00  0.0000E+00  0.0000E+00
     -5.996  0.0000E+00  0.0000E+00  0.0000E+00
     -5.910  0.0000E+00  0.0000E+00  0.0000E+00
     -5.824  0.2375E-13  0.6988E-02  0.2316E-03
     -5.738  0.9311E-02  0.4154E+00  0.2172E-01
     -5.651  0.3173E-02  0.3010E+00  0.2401E-01
     -5.565  0.3228E-01  0.7582E-01  0.1704E-01
     -5.479  0.7440E-01  0.3582E-01  0.1872E-01
     -5.393  0.1010E-01  0.1896E-02  0.3025E-03
     -5.306  0.5336E-03  0.8575E-04  0.6895E-05
     -5.220  0.3038E+00  0.4446E-01  0.3824E-02
     -5.134  0.3450E+00  0.1695E-01  0.3412E-02
     -5.048  0.3696E+00  0.7484E-02  0.1647E-02
     -4.962  0.1283E+00  0.7847E-04  0.4220E-03
     -4.875  0.0000E+00  0.0000E+00  0.0000E+00
     -4.789  0.0000E+00  0.0000E+00  0.0000E+00
     -4.703  0.0000E+00  0.0000E+00  0.0000E+00
     -4.617  0.0000E+00  0.0000E+00  0.0000E+00
     -4.531  0.0000E+00  0.0000E+00  0.0000E+00
     -4.444  0.0000E+00  0.0000E+00  0.0000E+00
     -4.358  0.0000E+00  0.0000E+00  0.0000E+00
     -4.272  0.0000E+00  0.0000E+00  0.0000E+00
     -4.186  0.0000E+00  0.0000E+00  0.0000E+00
     -4.100  0.0000E+00  0.0000E+00  0.0000E+00
     -4.013  0.0000E+00  0.0000E+00  0.0000E+00
     -3.927  0.0000E+00  0.0000E+00  0.0000E+00
     -3.841  0.0000E+00  0.0000E+00  0.0000E+00
     -3.755  0.0000E+00  0.0000E+00  0.0000E+00
     -3.668  0.0000E+00  0.0000E+00  0.0000E+00
     -3.582  0.0000E+00  0.0000E+00  0.0000E+00
     -3.496  0.0000E+00  0.0000E+00  0.0000E+00
     -3.410  0.0000E+00  0.0000E+00  0.0000E+00
     -3.324  0.0000E+00  0.0000E+00  0.0000E+00
     -3.237  0.0000E+00  0.0000E+00  0.0000E+00
     -3.151  0.0000E+00  0.0000E+00  0.0000E+00
     -3.065  0.0000E+00  0.0000E+00  0.0000E+00
     -2.979  0.0000E+00  0.0000E+00  0.0000E+00
     -2.893  0.0000E+00  0.0000E+00  0.0000E+00
     -2.806  0.0000E+00  0.0000E+00  0.0000E+00
     -2.720  0.0000E+00  0.0000E+00  0.0000E+00
     -2.634  0.0000E+00  0.0000E+00  0.0000E+00
     -2.548  0.0000E+00  0.0000E+00  0.0000E+00
     -2.462  0.0000E+00  0.0000E+00  0.0000E+00