    2    2    1    1
  0.3405476E+02  0.4583961E-09  0.4583961E-09  0.4583961E-09  0.5000000E-15
  1.000000000000000E-004
  CAR 
 Name                                    
     18     76     16
 
  0.0000000E+00  0.0000000E+00  0.0000000E+00  0.4629630E-02
    1       -8.958643   1.000000
    2       -5.830269   1.000000
    3       -5.830269   1.000000
    4       -5.830269   1.000000
    5       -5.552486   1.000000
    6       -5.552486   1.000000
    7        2.260703   1.000000
    8        2.260703   1.000000
    9        2.260703   1.000000
   10        2.894245   0.000000
   11        6.766274   0.000000
   12        6.766274   0.000000
   13        6.766274   0.000000
   14        9.508640   0.000000
   15       11.575572   0.000000
   16       11.575573   0.000000
 
  0.1666667E+00  0.0000000E+00  0.0000000E+00  0.3703704E-01
    1       -8.853337   1.000000
    2       -5.810451   1.000000
    3       -5.810451   1.000000
    4       -5.751818   1.000000
    5       -5.553843   1.000000
    6       -5.553843   1.000000
    7        0.476580   1.000000
    8        2.026307   1.000000
    9        2.026307   1.000000
   10        4.014582   0.000000
   11        6.868363   0.000000
   12        7.108615   0.000000
   13        7.108615   0.000000
   14       10.509532   0.000000
   15       10.641961   0.000000
   16       10.641961   0.000000
 
  0.3333333E+00  0.0000000E+00  0.0000000E+00  0.3703704E-01
    1       -8.639222   1.000000
    2       -5.776358   1.000000
    3       -5.776358   1.000000
    4       -5.549703   1.000000
    5       -5.549703   1.000000
    6       -5.478808   1.000000
    7       -1.382201   1.000000
    8        1.636124   1.000000
    9        1.636124   1.000000
   10        4.072333   0.000000
   11        7.391447   0.000000
   12        7.391447   0.000000
   13        8.386626   0.000000
   14       10.131086   0.000000
   15       11.051923   0.000000
   16       11.051923   0.000000
 
  0.5000000E+00  0.0000000E+00  0.0000000E+00  0.1851852E-01
    1       -8.532175   1.000000
    2       -5.763135   1.000000
    3       -5.763135   1.000000
    4       -5.543087   1.000000
    5       -5.543087   1.000000
    6       -5.223379   1.000000
    7       -2.243683   1.000000
    8        1.467110   1.000000
    9        1.467110   1.000000
   10        3.960772   0.000000
   11        7.352785   0.000000
   12        7.352785   0.000000
   13        9.144443   0.000000
   14       10.739699   0.000000
   15       12.480181   0.000000
   16       12.480181   0.000000
 
  0.1666667E+00  0.1666667E+00  0.0000000E+00  0.2777778E-01
    1       -8.818483   1.000000
    2       -5.790408   1.000000
    3       -5.790408   1.000000
    4       -5.755202   1.000000
    5       -5.562131   1.000000
    6       -5.544345   1.000000
    7        0.474222   1.000000
    8        1.638462   1.000000
    9        1.638462   1.000000
   10        4.676373   0.000000
   11        5.840217   0.000000
   12        7.726361   0.000000
   13        7.726361   0.000000
   14        9.308321   0.000000
   15       11.286140   0.000000
   16       11.814907   0.000000
 
  0.3333333E+00  0.1666667E+00  0.0000000E+00  0.1111111E+00
    1       -8.641240   1.000000
    2       -5.764427   1.000000
    3       -5.751697   1.000000
    4       -5.615209   1.000000
    5       -5.538207   1.000000
    6       -5.497253   1.000000
    7       -0.917414   1.000000
    8        1.103724   1.000000
    9        1.221403   1.000000
   10        5.037908   0.000000
   11        6.189433   0.000000
   12        7.857383   0.000000
   13        8.293728   0.000000
   14       10.039966   0.000000
   15       11.872965   0.000000
   16       11.946061   0.000000
 
  0.5000000E+00  0.1666667E+00  0.0000000E+00  0.1111111E+00
    1       -8.500138   1.000000
    2       -5.748656   1.000000
    3       -5.735160   1.000000
    4       -5.570911   1.000000
    5       -5.539961   1.000000
    6       -5.202021   1.000000
    7       -2.025385   1.000000
    8        0.567588   1.000000
    9        1.138216   1.000000
   10        4.941010   0.000000
   11        6.845168   0.000000
   12        8.108700   0.000000
   13        8.723000   0.000000
   14       10.931778   0.000000
   15       12.126127   0.000000
   16       12.574908   0.000000
 
 -0.3333333E+00  0.1666667E+00  0.0000000E+00  0.1111111E+00
    1       -8.535037   1.000000
    2       -5.750007   1.000000
    3       -5.749639   1.000000
    4       -5.556563   1.000000
    5       -5.556226   1.000000
    6       -5.287663   1.000000
    7       -1.754270   1.000000
    8        0.429640   1.000000
    9        1.442508   1.000000
   10        4.998080   0.000000
   11        7.086975   0.000000
   12        7.803922   0.000000
   13        8.494120   0.000000
   14       10.644184   0.000000
   15       11.293483   0.000000
   16       12.476145   0.000000
 
 -0.1666667E+00  0.1666667E+00  0.0000000E+00  0.5555556E-01
    1       -8.711722   1.000000
    2       -5.787702   1.000000
    3       -5.772858   1.000000
    4       -5.626074   1.000000
    5       -5.563132   1.000000
    6       -5.532844   1.000000
    7       -0.507065   1.000000
    8        0.973209   1.000000
    9        1.903198   1.000000
   10        4.840382   0.000000
   11        6.839902   0.000000
   12        7.339441   0.000000
   13        7.646332   0.000000
   14        9.885656   0.000000
   15       11.119234   0.000000
   16       11.874626   0.000000
 
  0.3333333E+00  0.3333333E+00  0.0000000E+00  0.2777778E-01
    1       -8.537009   1.000000
    2       -5.703310   1.000000
    3       -5.703310   1.000000
    4       -5.657483   1.000000
    5       -5.528061   1.000000
    6       -5.390230   1.000000
    7       -1.264982   1.000000
    8        0.726822   1.000000
    9        0.726822   1.000000
   10        4.869700   0.000000
   11        5.294187   0.000000
   12        9.473865   0.000000
   13        9.683240   0.000000
   14        9.683240   0.000000
   15       12.477525   0.000000
   16       14.084562   0.000000
 
  0.5000000E+00  0.3333333E+00  0.0000000E+00  0.1111111E+00
    1       -8.433919   1.000000
    2       -5.703752   1.000000
    3       -5.680527   1.000000
    4       -5.625380   1.000000
    5       -5.529249   1.000000
    6       -5.140909   1.000000
    7       -1.901118   1.000000
    8        0.050291   1.000000
    9        0.591051   1.000000
   10        4.962025   0.000000
   11        5.861616   0.000000
   12        9.126870   0.000000
   13        9.873193   0.000000
   14       11.233848   0.000000
   15       12.883302   0.000000
   16       13.654115   0.000000
 
 -0.3333333E+00  0.3333333E+00  0.0000000E+00  0.5555556E-01
    1       -8.434073   1.000000
    2       -5.723945   1.000000
    3       -5.701114   1.000000
    4       -5.582868   1.000000
    5       -5.547822   1.000000
    6       -5.075666   1.000000
    7       -1.943544   1.000000
    8       -0.414034   1.000000
    9        0.906816   1.000000
   10        5.194658   0.000000
   11        7.284346   0.000000
   12        9.019036   0.000000
   13        9.135557   0.000000
   14        9.620061   0.000000
   15       11.176357   0.000000
   16       14.311860   0.000000
 
  0.5000000E+00  0.5000000E+00  0.0000000E+00  0.1388889E-01
    1       -8.399785   1.000000
    2       -5.670131   1.000000
    3       -5.655466   1.000000
    4       -5.655466   1.000000
    5       -5.519883   1.000000
    6       -5.095381   1.000000
    7       -2.108379   1.000000
    8        0.352966   1.000000
    9        0.352966   1.000000
   10        4.708172   0.000000
   11        4.828287   0.000000
   12       10.948273   0.000000
   13       11.298929   0.000000
   14       11.298930   0.000000
   15       13.036232   0.000000
   16       13.746218   0.000000
 
  0.5000000E+00  0.3333333E+00  0.1666667E+00  0.1111111E+00
    1       -8.502026   1.000000
    2       -5.728824   1.000000
    3       -5.721422   1.000000
    4       -5.599170   1.000000
    5       -5.539376   1.000000
    6       -5.265899   1.000000
    7       -1.581439   1.000000
    8        0.136475   1.000000
    9        0.909347   1.000000
   10        5.756396   0.000000
   11        6.276129   0.000000
   12        7.436634   0.000000
   13        9.577958   0.000000
   14       10.346664   0.000000
   15       12.432515   0.000000
   16       13.612326   0.000000
 
 -0.3333333E+00  0.3333333E+00  0.1666667E+00  0.1111111E+00
    1       -8.434072   1.000000
    2       -5.720962   1.000000
    3       -5.705524   1.000000
    4       -5.579472   1.000000
    5       -5.549987   1.000000
    6       -5.074631   1.000000
    7       -1.982056   1.000000
    8       -0.183140   1.000000
    9        0.619846   1.000000
   10        5.886430   0.000000
   11        6.758521   0.000000
   12        7.909971   0.000000
   13        9.421012   0.000000
   14       10.123447   0.000000
   15       12.623100   0.000000
   16       13.404353   0.000000
 
 -0.3333333E+00  0.5000000E+00  0.1666667E+00  0.5555556E-01
    1       -8.400960   1.000000
    2       -5.692749   1.000000
    3       -5.688838   1.000000
    4       -5.604726   1.000000
    5       -5.539380   1.000000
    6       -5.028378   1.000000
    7       -2.023334   1.000000
    8       -0.002120   1.000000
    9        0.081352   1.000000
   10        5.893579   0.000000
   11        5.910825   0.000000
   12        8.834213   0.000000
   13        9.110094   0.000000
   14       11.747068   0.000000
   15       13.278231   0.000000
   16       13.499280   0.000000
 
  0.0000000E+00  0.0000000E+00  0.0000000E+00  0.0000000E+00
    1       -8.958643   1.000000
    2       -5.830269   1.000000
    3       -5.830269   1.000000
    4       -5.830269   1.000000
    5       -5.552486   1.000000
    6       -5.552486   1.000000
    7        2.260703   1.000000
    8        2.260703   1.000000
    9        2.260703   1.000000
   10        2.894245   0.000000
   11        6.766274   0.000000
   12        6.766274   0.000000
   13        6.766274   0.000000
   14        9.508640   0.000000
   15       11.575572   0.000000
   16       11.575603   0.000000
 
  0.8333330E-02  0.0000000E+00  0.8333330E-02  0.0000000E+00
    1       -8.958269   1.000000
    2       -5.830161   1.000000
    3       -5.830161   1.000000
    4       -5.830090   1.000000
    5       -5.552524   1.000000
    6       -5.552463   1.000000
    7        2.242619   1.000000
    8        2.258706   1.000000
    9        2.258706   1.000000
   10        2.912604   0.000000
   11        6.762220   0.000000
   12        6.769110   0.000000
   13        6.769110   0.000000
   14        9.514618   0.000000
   15       11.546160   0.000000
   16       11.576202   0.000000
 
  0.1666667E-01  0.0000000E+00  0.1666667E-01  0.0000000E+00
    1       -8.957132   1.000000
    2       -5.829842   1.000000
    3       -5.829842   1.000000
    4       -5.829554   1.000000
    5       -5.552639   1.000000
    6       -5.552396   1.000000
    7        2.193542   1.000000
    8        2.252733   1.000000
    9        2.252733   1.000000
   10        2.962495   0.000000
   11        6.750172   0.000000
   12        6.777602   0.000000
   13        6.777602   0.000000
   14        9.532426   0.000000
   15       11.469567   0.000000
   16       11.577994   0.000000
 
  0.2500000E-01  0.0000000E+00  0.2500000E-01  0.0000000E+00
    1       -8.955230   1.000000
    2       -5.829309   1.000000
    3       -5.829309   1.000000
    4       -5.828660   1.000000
    5       -5.552828   1.000000
    6       -5.552284   1.000000
    7        2.123632   1.000000
    8        2.242843   1.000000
    9        2.242843   1.000000
   10        3.033742   0.000000
   11        6.730463   0.000000
   12        6.791698   0.000000
   13        6.791698   0.000000
   14        9.561687   0.000000
   15       11.365377   0.000000
   16       11.581026   0.000000
 
  0.3333334E-01  0.0000000E+00  0.3333334E-01  0.0000000E+00
    1       -8.952575   1.000000
    2       -5.828566   1.000000
    3       -5.828566   1.000000
    4       -5.827406   1.000000
    5       -5.553092   1.000000
    6       -5.552128   1.000000
    7        2.041219   1.000000
    8        2.229119   1.000000
    9        2.229119   1.000000
   10        3.117977   0.000000
   11        6.703604   0.000000
   12        6.811303   0.000000
   13        6.811303   0.000000
   14        9.601798   0.000000
   15       11.246708   0.000000
   16       11.585252   0.000000
 
  0.4166667E-01  0.0000000E+00  0.4166667E-01  0.0000000E+00
    1       -8.949170   1.000000
    2       -5.827615   1.000000
    3       -5.827614   1.000000
    4       -5.825789   1.000000
    5       -5.553428   1.000000
    6       -5.551930   1.000000
    7        1.951462   1.000000
    8        2.211686   1.000000
    9        2.211686   1.000000
   10        3.209990   0.000000
   11        6.670242   0.000000
   12        6.836299   0.000000
   13        6.836299   0.000000
   14        9.651959   0.000000
   15       11.120679   0.000000
   16       11.590679   0.000000
 
  0.5000000E-01  0.0000000E+00  0.5000000E-01  0.0000000E+00
    1       -8.945023   1.000000
    2       -5.826457   1.000000
    3       -5.826456   1.000000
    4       -5.823804   1.000000
    5       -5.553835   1.000000
    6       -5.551688   1.000000
    7        1.857335   1.000000
    8        2.190692   1.000000
    9        2.190692   1.000000
   10        3.306743   0.000000
   11        6.631115   0.000000
   12        6.866539   0.000000
   13        6.866539   0.000000
   14        9.711174   0.000000
   15       10.991359   0.000000
   16       11.597325   0.000000
 
  0.5833334E-01  0.0000000E+00  0.5833334E-01  0.0000000E+00
    1       -8.940145   1.000000
    2       -5.825094   1.000000
    3       -5.825094   1.000000
    4       -5.821447   1.000000
    5       -5.554308   1.000000
    6       -5.551404   1.000000
    7        1.760556   1.000000
    8        2.166306   1.000000
    9        2.166306   1.000000
   10        3.406431   0.000000
   11        6.586987   0.000000
   12        6.901850   0.000000
   13        6.901850   0.000000
   14        9.778197   0.000000
   15       10.861500   0.000000
   16       11.605174   0.000000
 
  0.6666667E-01  0.0000000E+00  0.6666667E-01  0.0000000E+00
    1       -8.934551   1.000000
    2       -5.823529   1.000000
    3       -5.823529   1.000000
    4       -5.818714   1.000000
    5       -5.554842   1.000000
    6       -5.551077   1.000000
    7        1.662170   1.000000
    8        2.138725   1.000000
    9        2.138725   1.000000
   10        3.507906   0.000000
   11        6.538622   0.000000
   12        6.942039   0.000000
   13        6.942039   0.000000
   14        9.851304   0.000000
   15       10.733537   0.000000
   16       11.614216   0.000000
 
  0.7500000E-01  0.0000000E+00  0.7500000E-01  0.0000000E+00
    1       -8.928252   1.000000
    2       -5.821764   1.000000
    3       -5.821764   1.000000
    4       -5.815599   1.000000
    5       -5.555430   1.000000
    6       -5.550710   1.000000
    7        1.562833   1.000000
    8        2.108159   1.000000
    9        2.108159   1.000000
   10        3.610391   0.000000
   11        6.486754   0.000000
   12        6.986903   0.000000
   13        6.986903   0.000000
   14        9.927637   0.000000
   15       10.610668   0.000000
   16       11.624455   0.000000
 
  0.8333334E-01  0.0000000E+00  0.8333334E-01  0.0000000E+00
    1       -8.921266   1.000000
    2       -5.819803   1.000000
    3       -5.819802   1.000000
    4       -5.812098   1.000000
    5       -5.556064   1.000000
    6       -5.550303   1.000000
    7        1.462972   1.000000
    8        2.074825   1.000000
    9        2.074826   1.000000
   10        3.713311   0.000000
   11        6.432064   0.000000
   12        7.036223   0.000000
   13        7.036223   0.000000
   14       10.000946   0.000000
   15       10.499279   0.000000
   16       11.635900   0.000000
 
  0.9166667E-01  0.0000000E+00  0.9166667E-01  0.0000000E+00
    1       -8.913620   1.000000
    2       -5.817649   1.000000
    3       -5.817648   1.000000
    4       -5.808204   1.000000
    5       -5.556737   1.000000
    6       -5.549858   1.000000
    7        1.362886   1.000000
    8        2.038953   1.000000
    9        2.038953   1.000000
   10        3.816206   0.000000
   11        6.375177   0.000000
   12        7.089778   0.000000
   13        7.089778   0.000000
   14       10.054122   0.000000
   15       10.416525   0.000000
   16       11.648519   0.000000
 
  0.1000000E+00  0.0000000E+00  0.1000000E+00  0.0000000E+00
    1       -8.905327   1.000000
    2       -5.815308   1.000000
    3       -5.815308   1.000000
    4       -5.803915   1.000000
    5       -5.557439   1.000000
    6       -5.549376   1.000000
    7        1.262783   1.000000
    8        2.000765   1.000000
    9        2.000765   1.000000
   10        3.918665   0.000000
   11        6.316651   0.000000
   12        7.147336   0.000000
   13        7.147336   0.000000
   14       10.050970   0.000000
   15       10.398608   0.000000
   16       11.662334   0.000000
 
  0.1083333E+00  0.0000000E+00  0.1083333E+00  0.0000000E+00
    1       -8.896404   1.000000
    2       -5.812784   1.000000
    3       -5.812783   1.000000
    4       -5.799223   1.000000
    5       -5.558160   1.000000
    6       -5.548858   1.000000
    7        1.162820   1.000000
    8        1.960495   1.000000
    9        1.960495   1.000000
   10        4.020325   0.000000
   11        6.256992   0.000000
   12        7.208678   0.000000
   13        7.208678   0.000000
   14        9.983906   0.000000
   15       10.453126   0.000000
   16       11.677332   0.000000
 
  0.1166667E+00  0.0000000E+00  0.1166667E+00  0.0000000E+00
    1       -8.886874   1.000000
    2       -5.810080   1.000000
    3       -5.810079   1.000000
    4       -5.794126   1.000000
    5       -5.558885   1.000000
    6       -5.548306   1.000000
    7        1.063110   1.000000
    8        1.918367   1.000000
    9        1.918367   1.000000
   10        4.120821   0.000000
   11        6.196645   0.000000
   12        7.273584   0.000000
   13        7.273584   0.000000
   14        9.888367   0.000000
   15       10.544674   0.000000
   16       11.693507   0.000000
 
  0.1250000E+00  0.0000000E+00  0.1250000E+00  0.0000000E+00
    1       -8.876763   1.000000
    2       -5.807201   1.000000
    3       -5.807201   1.000000
    4       -5.788623   1.000000
    5       -5.559598   1.000000
    6       -5.547720   1.000000
    7        0.963743   1.000000
    8        1.874603   1.000000
    9        1.874603   1.000000
   10        4.219779   0.000000
   11        6.136011   0.000000
   12        7.341836   0.000000
   13        7.341836   0.000000
   14        9.785141   0.000000
   15       10.652515   0.000000
   16       11.710854   0.000000
 
  0.1333333E+00  0.0000000E+00  0.1333333E+00  0.0000000E+00
    1       -8.866097   1.000000
    2       -5.804151   1.000000
    3       -5.804151   1.000000
    4       -5.782714   1.000000
    5       -5.560278   1.000000
    6       -5.547102   1.000000
    7        0.864794   1.000000
    8        1.829417   1.000000
    9        1.829417   1.000000
   10        4.316801   0.000000
   11        6.075449   0.000000
   12        7.413229   0.000000
   13        7.413229   0.000000
   14        9.681621   0.000000
   15       10.769354   0.000000
   16       11.729366   0.000000
 
  0.1416667E+00  0.0000000E+00  0.1416667E+00  0.0000000E+00
    1       -8.854906   1.000000
    2       -5.800939   1.000000
    3       -5.800939   1.000000
    4       -5.776406   1.000000
    5       -5.560903   1.000000
    6       -5.546453   1.000000
    7        0.766319   1.000000
    8        1.783017   1.000000
    9        1.783017   1.000000
   10        4.411461   0.000000
   11        6.015286   0.000000
   12        7.487559   0.000000
   13        7.487559   0.000000
   14        9.580834   0.000000
   15       10.892292   0.000000
   16       11.749032   0.000000
 
  0.1500000E+00  0.0000000E+00  0.1500000E+00  0.0000000E+00
    1       -8.843218   1.000000
    2       -5.797573   1.000000
    3       -5.797573   1.000000
    4       -5.769707   1.000000
    5       -5.561446   1.000000
    6       -5.545775   1.000000
    7        0.668371   1.000000
    8        1.735600   1.000000
    9        1.735600   1.000000
   10        4.503295   0.000000
   11        5.955831   0.000000
   12        7.564643   0.000000
   13        7.564643   0.000000
   14        9.484368   0.000000
   15       11.019915   0.000000
   16       11.769850   0.000000
 
  0.1583334E+00  0.0000000E+00  0.1583334E+00  0.0000000E+00
    1       -8.831064   1.000000
    2       -5.794060   1.000000
    3       -5.794060   1.000000
    4       -5.762630   1.000000
    5       -5.561870   1.000000
    6       -5.545072   1.000000
    7        0.570994   1.000000
    8        1.687356   1.000000
    9        1.687356   1.000000
   10        4.591790   0.000000
   11        5.897377   0.000000
   12        7.644303   0.000000
   13        7.644303   0.000000
   14        9.393262   0.000000
   15       11.151391   0.000000
   16       11.791821   0.000000
 
  0.1666667E+00  0.0000000E+00  0.1666667E+00  0.0000000E+00
    1       -8.818483   1.000000
    2       -5.790408   1.000000
    3       -5.790408   1.000000
    4       -5.755202   1.000000
    5       -5.562131   1.000000
    6       -5.544345   1.000000
    7        0.474221   1.000000
    8        1.638462   1.000000
    9        1.638462   1.000000
   10        4.676373   0.000000
   11        5.840217   0.000000
   12        7.726361   0.000000
   13        7.726361   0.000000
   14        9.308321   0.000000
   15       11.286140   0.000000
   16       11.814907   0.000000
 
  0.1750000E+00  0.0000000E+00  0.1750000E+00  0.0000000E+00
    1       -8.805521   1.000000
    2       -5.786624   1.000000
    3       -5.786624   1.000000
    4       -5.747456   1.000000
    5       -5.562175   1.000000
    6       -5.543596   1.000000
    7        0.378092   1.000000
    8        1.589088   1.000000
    9        1.589088   1.000000
   10        4.756408   0.000000
   11        5.784665   0.000000
   12        7.810662   0.000000
   13        7.810662   0.000000
   14        9.230234   0.000000
   15       11.423732   0.000000
   16       11.839108   0.000000
 
  0.1833333E+00  0.0000000E+00  0.1833333E+00  0.0000000E+00
    1       -8.792200   1.000000
    2       -5.782717   1.000000
    3       -5.782717   1.000000
    4       -5.739438   1.000000
    5       -5.561936   1.000000
    6       -5.542827   1.000000
    7        0.282647   1.000000
    8        1.539395   1.000000
    9        1.539395   1.000000
   10        4.831179   0.000000
   11        5.731071   0.000000
   12        7.897056   0.000000
   13        7.897056   0.000000
   14        9.159649   0.000000
   15       11.563810   0.000000
   16       11.864412   0.000000
 
  0.1916667E+00  0.0000000E+00  0.1916667E+00  0.0000000E+00
    1       -8.778556   1.000000
    2       -5.778696   1.000000
    3       -5.778696   1.000000
    4       -5.731208   1.000000
    5       -5.561334   1.000000
    6       -5.542041   1.000000
    7        0.187924   1.000000
    8        1.489534   1.000000
    9        1.489534   1.000000
   10        4.899875   0.000000
   11        5.679862   0.000000
   12        7.985404   0.000000
   13        7.985405   0.000000
   14        9.097161   0.000000
   15       11.706050   0.000000
   16       11.890803   0.000000
 
  0.2000000E+00  0.0000000E+00  0.2000000E+00  0.0000000E+00
    1       -8.764627   1.000000
    2       -5.774570   1.000000
    3       -5.774570   1.000000
    4       -5.722853   1.000000
    5       -5.560268   1.000000
    6       -5.541239   1.000000
    7        0.093959   1.000000
    8        1.439648   1.000000
    9        1.439648   1.000000
   10        4.961556   0.000000
   11        5.631567   0.000000
   12        8.075576   0.000000
   13        8.075576   0.000000
   14        9.043338   0.000000
   15       11.850148   0.000000
   16       11.918265   0.000000
 
  0.2083334E+00  0.0000000E+00  0.2083334E+00  0.0000000E+00
    1       -8.750453   1.000000
    2       -5.770350   1.000000
    3       -5.770350   1.000000
    4       -5.714476   1.000000
    5       -5.558619   1.000000
    6       -5.540424   1.000000
    7        0.000789   1.000000
    8        1.389870   1.000000
    9        1.389870   1.000000
   10        5.015127   0.000000
   11        5.586883   0.000000
   12        8.167448   0.000000
   13        8.167448   0.000000
   14        8.998693   0.000000
   15       11.946777   0.000000
   16       11.995808   0.000000
 
  0.2166667E+00  0.0000000E+00  0.2166667E+00  0.0000000E+00
    1       -8.736076   1.000000
    2       -5.766045   1.000000
    3       -5.766045   1.000000
    4       -5.706211   1.000000
    5       -5.556237   1.000000
    6       -5.539597   1.000000
    7       -0.091543   1.000000
    8        1.340328   1.000000
    9        1.340328   1.000000
   10        5.059308   0.000000
   11        5.546720   0.000000
   12        8.260905   0.000000
   13        8.260905   0.000000
   14        8.963689   0.000000
   15       11.976318   0.000000
   16       12.142727   0.000000
 
  0.2250000E+00  0.0000000E+00  0.2250000E+00  0.0000000E+00
    1       -8.721536   1.000000
    2       -5.761667   1.000000
    3       -5.761666   1.000000
    4       -5.698211   1.000000
    5       -5.552957   1.000000
    6       -5.538761   1.000000
    7       -0.182997   1.000000
    8        1.291137   1.000000
    9        1.291137   1.000000
   10        5.092678   0.000000
   11        5.512177   0.000000
   12        8.355836   0.000000
   13        8.355837   0.000000
   14        8.938703   0.000000
   15       12.006865   0.000000
   16       12.290587   0.000000
 
  0.2333333E+00  0.0000000E+00  0.2333333E+00  0.0000000E+00
    1       -8.706875   1.000000
    2       -5.757225   1.000000
    3       -5.757224   1.000000
    4       -5.690649   1.000000
    5       -5.548598   1.000000
    6       -5.537918   1.000000
    7       -0.273525   1.000000
    8        1.242413   1.000000
    9        1.242413   1.000000
   10        5.113932   0.000000
   11        5.484336   0.000000
   12        8.452147   0.000000
   13        8.452147   0.000000
   14        8.924011   0.000000
   15       12.038390   0.000000
   16       12.439055   0.000000
 
  0.2416667E+00  0.0000000E+00  0.2416667E+00  0.0000000E+00
    1       -8.692135   1.000000
    2       -5.752727   1.000000
    3       -5.752727   1.000000
    4       -5.683694   1.000000
    5       -5.542978   1.000000
    6       -5.537069   1.000000
    7       -0.363079   1.000000
    8        1.194257   1.000000
    9        1.194257   1.000000
   10        5.122433   0.000000
   11        5.463703   0.000000
   12        8.549748   0.000000
   13        8.549748   0.000000
   14        8.919767   0.000000
   15       12.070868   0.000000
   16       12.587775   0.000000
 
  0.2500000E+00  0.0000000E+00  0.2500000E+00  0.0000000E+00
    1       -8.677362   1.000000
    2       -5.748189   1.000000
    3       -5.748188   1.000000
    4       -5.677500   1.000000
    5       -5.536217   1.000000
    6       -5.535943   1.000000
    7       -0.451613   1.000000
    8        1.146766   1.000000
    9        1.146766   1.000000
   10        5.118903   0.000000
   11        5.449544   0.000000
   12        8.648535   0.000000
   13        8.648535   0.000000
   14        8.925978   0.000000
   15       12.104256   0.000000
   16       12.736329   0.000000
 
  0.2583333E+00  0.0000000E+00  0.2583333E+00  0.0000000E+00
    1       -8.662606   1.000000
    2       -5.743621   1.000000
    3       -5.743621   1.000000
    4       -5.672177   1.000000
    5       -5.535364   1.000000
    6       -5.527383   1.000000
    7       -0.539066   1.000000
    8        1.100038   1.000000
    9        1.100038   1.000000
   10        5.105509   0.000000
   11        5.439820   0.000000
   12        8.748429   0.000000
   13        8.748430   0.000000
   14        8.942511   0.000000
   15       12.138522   0.000000
   16       12.884279   0.000000
 
  0.2666667E+00  0.0000000E+00  0.2666667E+00  0.0000000E+00
    1       -8.647901   1.000000
    2       -5.739035   1.000000
    3       -5.739034   1.000000
    4       -5.667768   1.000000
    5       -5.534513   1.000000
    6       -5.517256   1.000000
    7       -0.625372   1.000000
    8        1.054161   1.000000
    9        1.054161   1.000000
   10        5.085081   0.000000
   11        5.431949   0.000000
   12        8.849346   0.000000
   13        8.849346   0.000000
   14        8.969072   0.000000
   15       12.173624   0.000000
   16       13.031126   0.000000
 
  0.2750000E+00  0.0000000E+00  0.2750000E+00  0.0000000E+00
    1       -8.633287   1.000000
    2       -5.734444   1.000000
    3       -5.734444   1.000000
    4       -5.664258   1.000000
    5       -5.533668   1.000000
    6       -5.505585   1.000000
    7       -0.710462   1.000000
    8        1.009217   1.000000
    9        1.009217   1.000000
   10        5.060222   0.000000
   11        5.423702   0.000000
   12        8.951202   0.000000
   13        8.951203   0.000000
   14        9.005253   0.000000
   15       12.209514   0.000000
   16       13.176315   0.000000
 
  0.2833334E+00  0.0000000E+00  0.2833334E+00  0.0000000E+00
    1       -8.618806   1.000000
    2       -5.729862   1.000000
    3       -5.729862   1.000000
    4       -5.661584   1.000000
    5       -5.532827   1.000000