       N       E                     dE             d eps       ncg     rms          rms(c)
DAV:   1     0.974782205178E+02    0.97478E+02   -0.82221E+03  2440   0.946E+02
DAV:   2    -0.200971773736E+01   -0.99488E+02   -0.94971E+02  2808   0.234E+02
DAV:   3    -0.546466589360E+01   -0.34549E+01   -0.34510E+01  3032   0.453E+01
DAV:   4    -0.549319914060E+01   -0.28533E-01   -0.28532E-01  3672   0.370E+00
DAV:   5    -0.549325692773E+01   -0.57787E-04   -0.57787E-04  3248   0.159E-01
DAV:   6    -0.549325797470E+01   -0.10470E-05   -0.10469E-05  3568   0.157E-02
DAV:   7    -0.549325799125E+01   -0.16552E-07   -0.16639E-07  2752   0.170E-03
   1 F= -.54932580E+01 E0= -.54932580E+01  d E =-.549326E+01
