 vasp.5.4.1 24Jun15 (build Nov 25 2015 16:01:35) complex                        
  
 executed on         CrayXC-Intel date 2016.09.08  17:45:30
 running on   96 total cores
 distrk:  each k-point on   24 cores,    4 groups
 distr:  one band on NCORES_PER_BAND=   6 cores,    4 groups


--------------------------------------------------------------------------------------------------------


 INCAR:
 POTCAR:    PAW_PBE Cd 06Sep2000                  
 POTCAR:    PAW_PBE Te 08Apr2002                  

 ----------------------------------------------------------------------------- 
|                                                                             |
|           W    W    AA    RRRRR   N    N  II  N    N   GGGG   !!!           |
|           W    W   A  A   R    R  NN   N  II  NN   N  G    G  !!!           |
|           W    W  A    A  R    R  N N  N  II  N N  N  G       !!!           |
|           W WW W  AAAAAA  RRRRR   N  N N  II  N  N N  G  GGG   !            |
|           WW  WW  A    A  R   R   N   NN  II  N   NN  G    G                |
|           W    W  A    A  R    R  N    N  II  N    N   GGGG   !!!           |
|                                                                             |
|      You have enabled k-point parallelism (KPAR>1).                         |
|      This developmental code was originally  written by Paul Kent at ORNL,  |
|      and carefully double checked in Vienna.                                |
|      GW as well as linear response parallelism added by Martijn Marsman     |
|      and Georg Kresse.                                                      |
|      Carefully verify results versus KPAR=1.                                |
|      Report problems to Paul Kent and Vienna.                               |
|                                                                             |
 ----------------------------------------------------------------------------- 

 POTCAR:    PAW_PBE Cd 06Sep2000                  
   VRHFIN =Cd : s2 d10                                                          
   LEXCH  = PE                                                                  
   EATOM  =  1293.1815 eV,   95.0462 Ry                                         
                                                                                
   TITEL  = PAW_PBE Cd 06Sep2000                                                
   LULTRA =        F    use ultrasoft PP ?                                      
   IUNSCR =        1    unscreen: 0-lin 1-nonlin 2-no                           
   RPACOR =    2.000    partial core radius                                     
   POMASS =  112.411; ZVAL   =   12.000    mass and valenz                      
   RCORE  =    2.300    outmost cutoff radius                                   
   RWIGS  =    2.980; RWIGS  =    1.577    wigner-seitz radius (au A)           
   ENMAX  =  274.336; ENMIN  =  205.752 eV                                      
   RCLOC  =    2.054    cutoff for local pot                                    
   LCOR   =        T    correct aug charges                                     
   LPAW   =        T    paw PP                                                  
   EAUG   =  456.106                                                            
   DEXC   =    0.000                                                            
   RMAX   =    2.358    core radius for proj-oper                               
   RAUG   =    1.300    factor for augmentation sphere                          
   RDEP   =    2.450    radius for radial grids                                 
   RDEPT  =    1.955    core radius for aug-charge                              
                                                                                
   Atomic configuration                                                         
   12 entries                                                                   
     n  l   j            E        occ.                                          
     1  0  0.50    -26519.7817   2.0000                                         
     2  0  0.50     -3936.9612   2.0000                                         
     2  1  1.50     -3532.2230   6.0000                                         
     3  0  0.50      -733.7908   2.0000                                         
     3  1  1.50      -601.0792   6.0000                                         
     3  2  2.50      -393.5307  10.0000                                         
     4  0  0.50      -105.8977   2.0000                                         
     4  1  1.50       -66.9488   6.0000                                         
     4  2  2.50       -11.7331  10.0000                                         
     5  0  0.50        -5.6592   2.0000                                         
     5  1  0.50        -1.3606   0.0000                                         
     4  3  2.50        -1.3606   0.0000                                         
   Description                                                                  
     l       E           TYP  RCUT    TYP  RCUT                                 
     2    -11.7331479     23  2.300                                             
     2    -13.0937305     23  2.300                                             
     0     -5.6591502     23  2.300                                             
     0     -1.5561433     23  2.300                                             
     1     -2.7211652     23  2.300                                             
     1      8.3548275     23  2.300                                             
  local pseudopotential read in
  partial core-charges read in
  partial kinetic energy density read in
  atomic valenz-charges read in
  non local Contribution for L=           2  read in
    real space projection operators read in
  non local Contribution for L=           2  read in
    real space projection operators read in
  non local Contribution for L=           0  read in
    real space projection operators read in
  non local Contribution for L=           0  read in
    real space projection operators read in
  non local Contribution for L=           1  read in
    real space projection operators read in
  non local Contribution for L=           1  read in
    real space projection operators read in
    PAW grid and wavefunctions read in
 
   number of l-projection  operators is LMAX  =           6
   number of lm-projection operators is LMMAX =          18
 
 POTCAR:    PAW_PBE Te 08Apr2002                  
   VRHFIN =Te: s2p4                                                             
   LEXCH  = PE                                                                  
   EATOM  =   223.2721 eV,   16.4100 Ry                                         
                                                                                
   TITEL  = PAW_PBE Te 08Apr2002                                                
   LULTRA =        F    use ultrasoft PP ?                                      
   IUNSCR =        1    unscreen: 0-lin 1-nonlin 2-no                           
   RPACOR =    2.200    partial core radius                                     
   POMASS =  127.600; ZVAL   =    6.000    mass and valenz                      
   RCORE  =    2.300    outmost cutoff radius                                   
   RWIGS  =    2.900; RWIGS  =    1.535    wigner-seitz radius (au A)           
   ENMAX  =  174.982; ENMIN  =  131.236 eV                                      
   ICORE  =        3    local potential                                         
   LCOR   =        T    correct aug charges                                     
   LPAW   =        T    paw PP                                                  
   EAUG   =  368.792                                                            
   DEXC   =    0.000                                                            
   RMAX   =    2.345    core radius for proj-oper                               
   RAUG   =    1.300    factor for augmentation sphere                          
   RDEP   =    2.397    radius for radial grids                                 
   RDEPT  =    2.174    core radius for aug-charge                              
                                                                                
   Atomic configuration                                                         
   13 entries                                                                   
     n  l   j            E        occ.                                          
     1  0  0.50    -31621.2075   2.0000                                         
     2  0  0.50     -4848.7941   2.0000                                         
     2  1  1.50     -4352.1960   6.0000                                         
     3  0  0.50      -964.9612   2.0000                                         
     3  1  1.50      -803.6179   6.0000                                         
     3  2  2.50      -559.8710  10.0000                                         
     4  0  0.50      -164.3522   2.0000                                         
     4  1  1.50      -114.3756   6.0000                                         
     4  2  2.50       -41.6483  10.0000                                         
     5  0  0.50       -15.1072   2.0000                                         
     5  1  0.50        -5.9526   4.0000                                         
     5  2  1.50        -5.4423   0.0000                                         
     4  3  2.50        -5.4423   0.0000                                         
   Description                                                                  
     l       E           TYP  RCUT    TYP  RCUT                                 
     0    -15.1072389     23  2.300                                             
     0    -16.4678215     23  2.300                                             
     1     -5.9526306     23  2.300                                             
     1     -2.4873968     23  2.300                                             
     2     -5.4423304     23  2.300                                             
     3     -1.3605826     23  2.300                                             
  local pseudopotential read in
  partial core-charges read in
  partial kinetic energy density read in
  atomic valenz-charges read in
  non local Contribution for L=           0  read in
    real space projection operators read in
  non local Contribution for L=           0  read in
    real space projection operators read in
  non local Contribution for L=           1  read in
    real space projection operators read in
  non local Contribution for L=           1  read in
    real space projection operators read in
  non local Contribution for L=           2  read in
    real space projection operators read in
    PAW grid and wavefunctions read in
 
   number of l-projection  operators is LMAX  =           5
   number of lm-projection operators is LMMAX =          13
 

 ----------------------------------------------------------------------------- 
|                                                                             |
|  ADVICE TO THIS USER RUNNING 'VASP/VAMP'   (HEAR YOUR MASTER'S VOICE ...):  |
|                                                                             |
|      You enforced a specific xc-type in the INCAR file,                     |
|      a different type was found on the POTCAR file                          |
|          I HOPE YOU KNOW, WHAT YOU ARE  DOING                               |
|                                                                             |
 ----------------------------------------------------------------------------- 

  PAW_PBE Cd 06Sep2000                  :
 energy of atom  1       EATOM=-1293.1815
 kinetic energy error for atom=    0.0063 (will be added to EATOM!!)
  PAW_PBE Te 08Apr2002                  :
 energy of atom  2       EATOM= -223.2721
 kinetic energy error for atom=    0.0007 (will be added to EATOM!!)
 
 
 POSCAR: CdTe (ICSD, 295K, Rabadanov 2001)       
  positions in direct lattice
  velocities in cartesian coordinates
 exchange correlation table for  LEXCH =       14
   RHO(1)=    0.500       N(1)  =     2000
   RHO(2)=  100.500       N(2)  =     4000
 


--------------------------------------------------------------------------------------------------------


 ion  position               nearest neighbor table
   1  0.000  0.000  0.000-   2 2.81   2 2.81   2 2.81   2 2.81
   2  0.250  0.250  0.250-   1 2.81   1 2.81   1 2.81   1 2.81
 
  LATTYP: Found a face centered cubic cell.
 ALAT       =     6.4827000000
  
  Lattice vectors:
  
 A1 = (   3.2413500000,   3.2413500000,   0.0000000000)
 A2 = (   3.2413500000,   0.0000000000,  -3.2413500000)
 A3 = (   0.0000000000,   3.2413500000,  -3.2413500000)


Analysis of symmetry for initial positions (statically):
=====================================================================
 Subroutine PRICEL returns:
 Original cell was already a primitive cell.
 

 Routine SETGRP: Setting up the symmetry group for a 
 face centered cubic supercell.


 Subroutine GETGRP returns: Found 24 space group operations
 (whereof 24 operations were pure point group operations)
 out of a pool of 48 trial point group operations.


The static configuration has the point symmetry T_d .


Analysis of symmetry for dynamics (positions and initial velocities):
=====================================================================
 Subroutine PRICEL returns:
 Original cell was already a primitive cell.
 

 Routine SETGRP: Setting up the symmetry group for a 
 face centered cubic supercell.


 Subroutine GETGRP returns: Found 24 space group operations
 (whereof 24 operations were pure point group operations)
 out of a pool of 48 trial point group operations.


The dynamic configuration has the point symmetry T_d .


 Subroutine INISYM returns: Found 24 space group operations
 (whereof 24 operations are pure point group operations),
 and found     1 'primitive' translations

 
 
 KPOINTS: Automatically generated mesh SCF: 16 ste
  k-points in reciprocal lattice
Space group operators:
 irot       det(A)        alpha          n_x          n_y          n_z        tau_x        tau_y        tau_z
    1     1.000000     0.000000     1.000000     0.000000     0.000000     0.000000     0.000000     0.000000
    2     1.000000   120.000000    -0.577350    -0.577350     0.577350     0.000000     0.000000     0.000000
    3     1.000000   120.000000     0.577350     0.577350    -0.577350     0.000000     0.000000     0.000000
    4    -1.000000    90.000000    -1.000000     0.000000     0.000000     0.000000     0.000000     0.000000
    5    -1.000000   180.000000     0.707107     0.707107     0.000000     0.000000     0.000000     0.000000
    6    -1.000000    90.000000     0.000000     1.000000     0.000000     0.000000     0.000000     0.000000
    7     1.000000   180.000000     1.000000     0.000000     0.000000     0.000000     0.000000     0.000000
    8     1.000000   120.000000     0.577350     0.577350     0.577350     0.000000     0.000000     0.000000
    9     1.000000   120.000000    -0.577350     0.577350     0.577350     0.000000     0.000000     0.000000
   10    -1.000000    90.000000     1.000000     0.000000     0.000000     0.000000     0.000000     0.000000
   11    -1.000000    90.000000     0.000000     0.000000     1.000000     0.000000     0.000000     0.000000
   12    -1.000000   180.000000     0.707107     0.000000    -0.707107     0.000000     0.000000     0.000000
   13     1.000000   120.000000     0.577350    -0.577350    -0.577350     0.000000     0.000000     0.000000
   14     1.000000   120.000000     0.577350    -0.577350     0.577350     0.000000     0.000000     0.000000
   15     1.000000   180.000000     0.000000     0.000000     1.000000     0.000000     0.000000     0.000000
   16    -1.000000    90.000000     0.000000    -1.000000     0.000000     0.000000     0.000000     0.000000
   17    -1.000000   180.000000     0.000000    -0.707107     0.707107     0.000000     0.000000     0.000000
   18    -1.000000    90.000000     0.000000     0.000000    -1.000000     0.000000     0.000000     0.000000
   19     1.000000   120.000000    -0.577350    -0.577350    -0.577350     0.000000     0.000000     0.000000
   20     1.000000   180.000000     0.000000     1.000000     0.000000     0.000000     0.000000     0.000000
   21     1.000000   120.000000    -0.577350     0.577350    -0.577350     0.000000     0.000000     0.000000
   22    -1.000000   180.000000     0.707107    -0.707107     0.000000     0.000000     0.000000     0.000000
   23    -1.000000   180.000000     0.000000     0.707107     0.707107     0.000000     0.000000     0.000000
   24    -1.000000   180.000000     0.707107     0.000000     0.707107     0.000000     0.000000     0.000000


--------------------------------------------------------------------------------------------------------




 Dimension of arrays:
   k-points           NKPTS =     76   k-points in BZ     NKDIM =     76   number of bands    NBANDS=     16
   number of dos      NEDOS =    301   number of ions     NIONS =      2
   non local maximal  LDIM  =      6   non local SUM 2l+1 LMDIM =     18
   total plane-waves  NPLWV =  46656
   max r-space proj   IRMAX =      1   max aug-charges    IRDMAX=  40037
   dimension x,y,z NGX =    36 NGY =   36 NGZ =   36
   dimension x,y,z NGXF=    72 NGYF=   72 NGZF=   72
   support grid    NGXF=    72 NGYF=   72 NGZF=   72
   ions per type =               1   1
 NGX,Y,Z   is equivalent  to a cutoff of  13.06, 13.06, 13.06 a.u.
 NGXF,Y,Z  is equivalent  to a cutoff of  26.11, 26.11, 26.11 a.u.


 I would recommend the setting:
   dimension x,y,z NGX =    33 NGY =   33 NGZ =   33
 SYSTEM =  Name                                    
 POSCAR =  CdTe (ICSD, 295K, Rabadanov 2001)       

 Startparameter for this run:
   NWRITE =      2    write-flag & timer
   PREC   = accura    normal or accurate (medium, high low for compatibility)
   ISTART =      0    job   : 0-new  1-cont  2-samecut
   ICHARG =     11    charge: 1-file 2-atom 10-const
   ISPIN  =      1    spin polarized calculation?
   LNONCOLLINEAR =      F non collinear calculations
   LSORBIT =      F    spin-orbit coupling
   INIWAV =      1    electr: 0-lowe 1-rand  2-diag
   LASPH  =      F    aspherical Exc in radial PAW
   METAGGA=      F    non-selfconsistent MetaGGA calc.

 Electronic Relaxation 1
   ENCUT  =  500.0 eV  36.75 Ry    6.06 a.u.   8.36  8.36  8.36*2*pi/ulx,y,z
   ENINI  =  500.0     initial cutoff
   ENAUG  =  456.1 eV  augmentation charge cutoff
   NELM   =     60;   NELMIN=  2; NELMDL=  0     # of ELM steps 
   EDIFF  = 0.1E-05   stopping-criterion for ELM
   LREAL  =      F    real-space projection
   NLSPLINE    = F    spline interpolate recip. space projectors
   LCOMPAT=      F    compatible to vasp.4.4
   GGA_COMPAT  = T    GGA compatible to vasp.4.4-vasp.4.6
   LMAXPAW     = -100 max onsite density
   LMAXMIX     =    2 max onsite mixed and CHGCAR
   VOSKOWN=      0    Vosko Wilk Nusair interpolation
   ROPT   =    0.00000   0.00000
 Ionic relaxation
   EDIFFG = -.5E-02   stopping-criterion for IOM
   NSW    =      1    number of steps for IOM
   NBLOCK =      1;   KBLOCK =      1    inner block; outer block 
   IBRION =      2    ionic relax: 0-MD 1-quasi-New 2-CG
   NFREE  =      1    steps in history (QN), initial steepest desc. (CG)
   ISIF   =      3    stress and relaxation
   IWAVPR =     11    prediction:  0-non 1-charg 2-wave 3-comb
   ISYM   =      2    0-nonsym 1-usesym 2-fastsym
   LCORR  =      T    Harris-Foulkes like correction to forces

   POTIM  = 0.5000    time-step for ionic-motion
   TEIN   =    0.0    initial temperature
   TEBEG  =    0.0;   TEEND  =   0.0 temperature during run
   SMASS  =  -3.00    Nose mass-parameter (am)
   estimated Nose-frequenzy (Omega)   =  0.10E-29 period in steps =****** mass=  -0.480E-27a.u.
   SCALEE = 1.0000    scale energy and forces
   NPACO  =    256;   APACO  = 16.0  distance and # of slots for P.C.
   PSTRESS=    0.0 pullay stress

  Mass of Ions in am
   POMASS = 112.41127.60
  Ionic Valenz
   ZVAL   =  12.00  6.00
  Atomic Wigner-Seitz radii
   RWIGS  =  -1.00 -1.00
  virtual crystal weights 
   VCA    =   1.00  1.00
   NELECT =      18.0000    total number of electrons
   NUPDOWN=      -1.0000    fix difference up-down

 DOS related values:
   EMIN   =  10.00;   EMAX   =-10.00  energy-range for DOS
   EFERMI =   0.00
   ISMEAR =     0;   SIGMA  =   0.01  broadening in eV -4-tet -1-fermi 0-gaus

 Electronic relaxation 2 (details)
   IALGO  =     38    algorithm
   LDIAG  =      T    sub-space diagonalisation (order eigenvalues)
   LSUBROT=      F    optimize rotation matrix (better conditioning)
   TURBO    =      0    0=normal 1=particle mesh
   IRESTART =      0    0=no restart 2=restart with 2 vectors
   NREBOOT  =      0    no. of reboots
   NMIN     =      0    reboot dimension
   EREF     =   0.00    reference energy to select bands
   IMIX   =      4    mixing-type and parameters
     AMIX     =   0.40;   BMIX     =  1.00
     AMIX_MAG =   1.60;   BMIX_MAG =  1.00
     AMIN     =   0.01
     WC   =   100.;   INIMIX=   1;  MIXPRE=   1;  MAXMIX= -45

 Intra band minimization:
   WEIMIN = 0.0010     energy-eigenvalue tresh-hold
   EBREAK =  0.16E-07  absolut break condition
   DEPER  =   0.30     relativ break condition  

   TIME   =   0.40     timestep for ELM

  volume/ion in A,a.u.               =      34.05       229.81
  Fermi-wavevector in a.u.,A,eV,Ry     =   1.050581  1.985311 15.017042  1.103721
  Thomas-Fermi vector in A             =   2.185590
 
 Write flags
   LWAVE  =      T    write WAVECAR
   LCHARG =      T    write CHGCAR
   LVTOT  =      F    write LOCPOT, total local potential
   LVHAR  =      F    write LOCPOT, Hartree potential only
   LELF   =      F    write electronic localiz. function (ELF)
   LORBIT =     10    0 simple, 1 ext, 2 COOP (PROOUT)


 Dipole corrections
   LMONO  =      F    monopole corrections only (constant potential shift)
   LDIPOL =      F    correct potential (dipole corrections)
   IDIPOL =      0    1-x, 2-y, 3-z, 4-all directions 
   EPSILON=  1.0000000 bulk dielectric constant

 Core level calculations are selected ICORELEVEL =  1
 Exchange correlation treatment:
   GGA     =    PS    GGA type
   LEXCH   =    14    internal setting for exchange type
   VOSKOWN=      0    Vosko Wilk Nusair interpolation
   LHFCALC =     F    Hartree Fock is set to
   LHFONE  =     F    Hartree Fock one center treatment
   AEXX    =    0.0000 exact exchange contribution

 Linear response parameters
   LEPSILON=     F    determine dielectric tensor
   LRPA    =     F    only Hartree local field effects (RPA)
   LNABLA  =     F    use nabla operator in PAW spheres
   LVEL    =     F    velocity operator in full k-point grid
   LINTERFAST=   F  fast interpolation
   KINTER  =     0    interpolate to denser k-point grid
   CSHIFT  =0.1000    complex shift for real part using Kramers Kronig
   OMEGAMAX=  -1.0    maximum frequency
   DEG_THRESHOLD= 0.2000000E-02 threshold for treating states as degnerate
   RTIME   =    0.100 relaxation time in fs

 Orbital magnetization related:
   ORBITALMAG=     F  switch on orbital magnetization
   LCHIMAG   =     F  perturbation theory with respect to B field
   DQ        =  0.001000  dq finite difference perturbation B field



--------------------------------------------------------------------------------------------------------


 conjugate gradient relaxation of ions
 charge density and potential remain constant during run
 non-spin polarized calculation
 Variant of blocked Davidson
 Davidson routine will perform the subspace rotation
 perform sub-space diagonalisation
    after iterative eigenvector-optimisation
 no mixing
 using additional bands            7
 reciprocal scheme for non local part
 use partial core corrections
 calculate Harris-corrections to forces 
   (improved forces if not selfconsistent)
 use gradient corrections 
 WARNING: stress and forces are not correct
  (second derivative of E(xc) not defined)
 use of overlap-Matrix (Vanderbilt PP)
 Gauss-broadening in eV      SIGMA  =   0.01


--------------------------------------------------------------------------------------------------------


  energy-cutoff  :      500.00
  volume of cell :       68.11
      direct lattice vectors                 reciprocal lattice vectors
     3.241350000  3.241350000  0.000000000     0.154256714  0.154256714  0.154256714
     3.241350000  0.000000000 -3.241350000     0.154256714 -0.154256714 -0.154256714
     0.000000000  3.241350000 -3.241350000    -0.154256714  0.154256714 -0.154256714

  length of vectors
     4.583961130  4.583961130  4.583961130     0.267180466  0.267180466  0.267180466


 
 k-points in units of 2pi/SCALE and weight: Automatically generated mesh SCF: 16 ste
   0.00000000  0.00000000  0.00000000       0.005
   0.16666667  0.16666667  0.16666667       0.037
   0.33333333  0.33333333  0.33333333       0.037
   0.50000000  0.50000000  0.50000000       0.019
   0.33333333  0.00000000  0.00000000       0.028
   0.50000000  0.16666667  0.16666667       0.111
   0.66666667  0.33333333  0.33333333       0.111
  -0.16666667 -0.50000000 -0.50000000       0.111
   0.00000000 -0.33333333 -0.33333333       0.056
   0.66666667  0.00000000  0.00000000       0.028
   0.83333333  0.16666667  0.16666667       0.111
   0.00000000 -0.66666667 -0.66666667       0.056
   1.00000000  0.00000000  0.00000000       0.014
   0.66666667  0.33333333  0.00000000       0.111
  -0.16666667 -0.50000000 -0.83333333       0.111
   0.00000000 -0.66666667 -1.00000000       0.056
   0.00000000  0.00000000  0.00000000       0.000
   0.00000000  0.01666666  0.00000000       0.000
   0.00000000  0.03333334  0.00000000       0.000
   0.00000000  0.05000000  0.00000000       0.000
   0.00000000  0.06666668  0.00000000       0.000
   0.00000000  0.08333334  0.00000000       0.000
   0.00000000  0.10000000  0.00000000       0.000
   0.00000000  0.11666668  0.00000000       0.000
   0.00000000  0.13333334  0.00000000       0.000
   0.00000000  0.15000000  0.00000000       0.000
   0.00000000  0.16666668  0.00000000       0.000
   0.00000000  0.18333334  0.00000000       0.000
   0.00000000  0.20000002  0.00000000       0.000
   0.00000000  0.21666666  0.00000000       0.000
   0.00000000  0.23333334  0.00000000       0.000
   0.00000000  0.25000000  0.00000000       0.000
   0.00000000  0.26666668  0.00000000       0.000
   0.00000000  0.28333336  0.00000000       0.000
   0.00000000  0.30000002  0.00000000       0.000
   0.00000000  0.31666670  0.00000000       0.000
   0.00000000  0.33333334  0.00000000       0.000
   0.00000000  0.35000002  0.00000000       0.000
   0.00000000  0.36666668  0.00000000       0.000
   0.00000000  0.38333336  0.00000000       0.000
   0.00000000  0.40000004  0.00000000       0.000
   0.00000000  0.41666672  0.00000000       0.000
   0.00000000  0.43333334  0.00000000       0.000
   0.00000000  0.45000002  0.00000000       0.000
   0.00000000  0.46666670  0.00000000       0.000
   0.00000000  0.48333338  0.00000000       0.000
   0.00000000  0.50000000  0.00000000       0.000
   0.00000000  0.51666666  0.00000000       0.000
   0.00000000  0.53333336  0.00000000       0.000
   0.00000000  0.55000002  0.00000000       0.000
   0.00000000  0.56666672  0.00000000       0.000
   0.00000000  0.58333332  0.00000000       0.000
   0.00000000  0.60000002  0.00000000       0.000
   0.00000000  0.61666668  0.00000000       0.000
   0.00000000  0.63333338  0.00000000       0.000
   0.00000000  0.64999998  0.00000000       0.000
   0.00000000  0.66666668  0.00000000       0.000
   0.00000000  0.68333334  0.00000000       0.000
   0.00000000  0.70000004  0.00000000       0.000
   0.00000000  0.71666670  0.00000000       0.000
   0.00000000  0.73333334  0.00000000       0.000
   0.00000000  0.75000006  0.00000000       0.000
   0.00000000  0.76666672  0.00000000       0.000
   0.00000000  0.78333336  0.00000000       0.000
   0.00000000  0.80000008  0.00000000       0.000
   0.00000000  0.81666666  0.00000000       0.000
   0.00000000  0.83333344  0.00000000       0.000
   0.00000000  0.85000002  0.00000000       0.000
   0.00000000  0.86666668  0.00000000       0.000
   0.00000000  0.88333338  0.00000000       0.000
   0.00000000  0.90000004  0.00000000       0.000
   0.00000000  0.91666668  0.00000000       0.000
   0.00000000  0.93333340  0.00000000       0.000
   0.00000000  0.94999998  0.00000000       0.000
   0.00000000  0.96666676  0.00000000       0.000
   0.00000000  0.98333334  0.00000000       0.000
 
 k-points in reciprocal lattice and weights: Automatically generated mesh SCF: 16 ste
   0.00000000  0.00000000  0.00000000       0.005
   0.16666667  0.00000000  0.00000000       0.037
   0.33333333  0.00000000  0.00000000       0.037
   0.50000000  0.00000000  0.00000000       0.019
   0.16666667  0.16666667  0.00000000       0.028
   0.33333333  0.16666667  0.00000000       0.111
   0.50000000  0.16666667  0.00000000       0.111
  -0.33333333  0.16666667  0.00000000       0.111
  -0.16666667  0.16666667  0.00000000       0.056
   0.33333333  0.33333333  0.00000000       0.028
   0.50000000  0.33333333  0.00000000       0.111
  -0.33333333  0.33333333  0.00000000       0.056
   0.50000000  0.50000000  0.00000000       0.014
   0.50000000  0.33333333  0.16666667       0.111
  -0.33333333  0.33333333  0.16666667       0.111
  -0.33333333  0.50000000  0.16666667       0.056
   0.00000000  0.00000000  0.00000000       0.000
   0.00833333  0.00000000  0.00833333       0.000
   0.01666667  0.00000000  0.01666667       0.000
   0.02500000  0.00000000  0.02500000       0.000
   0.03333334  0.00000000  0.03333334       0.000
   0.04166667  0.00000000  0.04166667       0.000
   0.05000000  0.00000000  0.05000000       0.000
   0.05833334  0.00000000  0.05833334       0.000
   0.06666667  0.00000000  0.06666667       0.000
   0.07500000  0.00000000  0.07500000       0.000
   0.08333334  0.00000000  0.08333334       0.000
   0.09166667  0.00000000  0.09166667       0.000
   0.10000001  0.00000000  0.10000001       0.000
   0.10833333  0.00000000  0.10833333       0.000
   0.11666667  0.00000000  0.11666667       0.000
   0.12500000  0.00000000  0.12500000       0.000
   0.13333334  0.00000000  0.13333334       0.000
   0.14166668  0.00000000  0.14166668       0.000
   0.15000001  0.00000000  0.15000001       0.000
   0.15833335  0.00000000  0.15833335       0.000
   0.16666667  0.00000000  0.16666667       0.000
   0.17500001  0.00000000  0.17500001       0.000
   0.18333334  0.00000000  0.18333334       0.000
   0.19166668  0.00000000  0.19166668       0.000
   0.20000002  0.00000000  0.20000002       0.000
   0.20833336  0.00000000  0.20833336       0.000
   0.21666667  0.00000000  0.21666667       0.000
   0.22500001  0.00000000  0.22500001       0.000
   0.23333335  0.00000000  0.23333335       0.000
   0.24166669  0.00000000  0.24166669       0.000
   0.25000000  0.00000000  0.25000000       0.000
   0.25833333  0.00000000  0.25833333       0.000
   0.26666668  0.00000000  0.26666668       0.000
   0.27500001  0.00000000  0.27500001       0.000
   0.28333336  0.00000000  0.28333336       0.000
   0.29166666  0.00000000  0.29166666       0.000
   0.30000001  0.00000000  0.30000001       0.000
   0.30833334  0.00000000  0.30833334       0.000
   0.31666669  0.00000000  0.31666669       0.000
   0.32499999  0.00000000  0.32499999       0.000
   0.33333334  0.00000000  0.33333334       0.000
   0.34166667  0.00000000  0.34166667       0.000
   0.35000002  0.00000000  0.35000002       0.000
   0.35833335  0.00000000  0.35833335       0.000
   0.36666667  0.00000000  0.36666667       0.000
   0.37500003  0.00000000  0.37500003       0.000
   0.38333336  0.00000000  0.38333336       0.000
   0.39166668  0.00000000  0.39166668       0.000
   0.40000004  0.00000000  0.40000004       0.000
   0.40833333  0.00000000  0.40833333       0.000
   0.41666672  0.00000000  0.41666672       0.000
   0.42500001  0.00000000  0.42500001       0.000
   0.43333334  0.00000000  0.43333334       0.000
   0.44166669  0.00000000  0.44166669       0.000
   0.45000002  0.00000000  0.45000002       0.000
   0.45833334  0.00000000  0.45833334       0.000
   0.46666670  0.00000000  0.46666670       0.000
   0.47499999  0.00000000  0.47499999       0.000
   0.48333338  0.00000000  0.48333338       0.000
   0.49166667  0.00000000  0.49166667       0.000
 
 position of ions in fractional coordinates (direct lattice) 
   0.00000000  0.00000000  0.00000000
   0.25000000  0.25000000  0.25000000
 
 position of ions in cartesian coordinates  (Angst):
   0.00000000  0.00000000  0.00000000
   1.62067500  1.62067500 -1.62067500
 


--------------------------------------------------------------------------------------------------------


 k-point  1 :   0.0000 0.0000 0.0000  plane waves:    1759
 k-point  2 :   0.1667 0.0000 0.0000  plane waves:    1747
 k-point  3 :   0.3333 0.0000 0.0000  plane waves:    1730
 k-point  4 :   0.5000 0.0000 0.0000  plane waves:    1718
 k-point  5 :   0.1667 0.1667 0.0000  plane waves:    1736
 k-point  6 :   0.3333 0.1667 0.0000  plane waves:    1729
 k-point  7 :   0.5000 0.1667 0.0000  plane waves:    1739
 k-point  8 :  -0.3333 0.1667 0.0000  plane waves:    1732
 k-point  9 :  -0.1667 0.1667 0.0000  plane waves:    1735
 k-point 10 :   0.3333 0.3333 0.0000  plane waves:    1728
 k-point 11 :   0.5000 0.3333 0.0000  plane waves:    1723
 k-point 12 :  -0.3333 0.3333 0.0000  plane waves:    1726
 k-point 13 :   0.5000 0.5000 0.0000  plane waves:    1724
 k-point 14 :   0.5000 0.3333 0.1667  plane waves:    1724
 k-point 15 :  -0.3333 0.3333 0.1667  plane waves:    1726
 k-point 16 :  -0.3333 0.5000 0.1667  plane waves:    1722
 k-point 17 :   0.0000 0.0000 0.0000  plane waves:    1759
 k-point 18 :   0.0083 0.0000 0.0083  plane waves:    1767
 k-point 19 :   0.0167 0.0000 0.0167  plane waves:    1771
 k-point 20 :   0.0250 0.0000 0.0250  plane waves:    1755
 k-point 21 :   0.0333 0.0000 0.0333  plane waves:    1755
 k-point 22 :   0.0417 0.0000 0.0417  plane waves:    1763
 k-point 23 :   0.0500 0.0000 0.0500  plane waves:    1763
 k-point 24 :   0.0583 0.0000 0.0583  plane waves:    1747
 k-point 25 :   0.0667 0.0000 0.0667  plane waves:    1747
 k-point 26 :   0.0750 0.0000 0.0750  plane waves:    1747
 k-point 27 :   0.0833 0.0000 0.0833  plane waves:    1747
 k-point 28 :   0.0917 0.0000 0.0917  plane waves:    1744
 k-point 29 :   0.1000 0.0000 0.1000  plane waves:    1744
 k-point 30 :   0.1083 0.0000 0.1083  plane waves:    1744
 k-point 31 :   0.1167 0.0000 0.1167  plane waves:    1740
 k-point 32 :   0.1250 0.0000 0.1250  plane waves:    1740
 k-point 33 :   0.1333 0.0000 0.1333  plane waves:    1740
 k-point 34 :   0.1417 0.0000 0.1417  plane waves:    1748
 k-point 35 :   0.1500 0.0000 0.1500  plane waves:    1748
 k-point 36 :   0.1583 0.0000 0.1583  plane waves:    1736
 k-point 37 :   0.1667 0.0000 0.1667  plane waves:    1736
 k-point 38 :   0.1750 0.0000 0.1750  plane waves:    1744
 k-point 39 :   0.1833 0.0000 0.1833  plane waves:    1748
 k-point 40 :   0.1917 0.0000 0.1917  plane waves:    1744
 k-point 41 :   0.2000 0.0000 0.2000  plane waves:    1736
 k-point 42 :   0.2083 0.0000 0.2083  plane waves:    1736
 k-point 43 :   0.2167 0.0000 0.2167  plane waves:    1736
 k-point 44 :   0.2250 0.0000 0.2250  plane waves:    1736
 k-point 45 :   0.2333 0.0000 0.2333  plane waves:    1736
 k-point 46 :   0.2417 0.0000 0.2417  plane waves:    1716
 k-point 47 :   0.2500 0.0000 0.2500  plane waves:    1716
 k-point 48 :   0.2583 0.0000 0.2583  plane waves:    1716
 k-point 49 :   0.2667 0.0000 0.2667  plane waves:    1720
 k-point 50 :   0.2750 0.0000 0.2750  plane waves:    1724
 k-point 51 :   0.2833 0.0000 0.2833  plane waves:    1724
 k-point 52 :   0.2917 0.0000 0.2917  plane waves:    1728
 k-point 53 :   0.3000 0.0000 0.3000  plane waves:    1720
 k-point 54 :   0.3083 0.0000 0.3083  plane waves:    1720
 k-point 55 :   0.3167 0.0000 0.3167  plane waves:    1720
 k-point 56 :   0.3250 0.0000 0.3250  plane waves:    1728
 k-point 57 :   0.3333 0.0000 0.3333  plane waves:    1728
 k-point 58 :   0.3417 0.0000 0.3417  plane waves:    1728
 k-point 59 :   0.3500 0.0000 0.3500  plane waves:    1728
 k-point 60 :   0.3583 0.0000 0.3583  plane waves:    1724
 k-point 61 :   0.3667 0.0000 0.3667  plane waves:    1732
 k-point 62 :   0.3750 0.0000 0.3750  plane waves:    1728
 k-point 63 :   0.3833 0.0000 0.3833  plane waves:    1728
 k-point 64 :   0.3917 0.0000 0.3917  plane waves:    1728
 k-point 65 :   0.4000 0.0000 0.4000  plane waves:    1736
 k-point 66 :   0.4083 0.0000 0.4083  plane waves:    1728
 k-point 67 :   0.4167 0.0000 0.4167  plane waves:    1728
 k-point 68 :   0.4250 0.0000 0.4250  plane waves:    1728
 k-point 69 :   0.4333 0.0000 0.4333  plane waves:    1728
 k-point 70 :   0.4417 0.0000 0.4417  plane waves:    1724
 k-point 71 :   0.4500 0.0000 0.4500  plane waves:    1732
 k-point 72 :   0.4583 0.0000 0.4583  plane waves:    1732
 k-point 73 :   0.4667 0.0000 0.4667  plane waves:    1732
 k-point 74 :   0.4750 0.0000 0.4750  plane waves:    1724
 k-point 75 :   0.4833 0.0000 0.4833  plane waves:    1724
 k-point 76 :   0.4917 0.0000 0.4917  plane waves:    1724

 maximum and minimum number of plane-waves per node :       303      271

 maximum number of plane-waves:      1771
 maximum index in each direction: 
   IXMAX=    8   IYMAX=    8   IZMAX=    8
   IXMIN=   -8   IYMIN=   -8   IZMIN=   -8

 NGX is ok and might be reduce to  34
 NGY is ok and might be reduce to  34
 NGZ is ok and might be reduce to  34

 parallel 3D FFT for wavefunctions:
    minimum data exchange during FFTs selected (reduces bandwidth)
 parallel 3D FFT for charge:
    minimum data exchange during FFTs selected (reduces bandwidth)


 total amount of memory used by VASP on root node    40117. kBytes
========================================================================

   base      :      30000. kBytes
   nonl-proj :       6576. kBytes
   fftplans  :        768. kBytes
   grid      :       1202. kBytes
   one-center:         15. kBytes
   wavefun   :       1556. kBytes
 
     INWAV:  cpu time    0.0000: real time    0.0002
 initial charge density was supplied:
 number of electron      18.0000000 magnetization 
 keeping initial charge density in first step


--------------------------------------------------------------------------------------------------------


 Maximum index for augmentation-charges         1676 (set IRDMAX)


--------------------------------------------------------------------------------------------------------


 First call to EWALD:  gamma=   0.434
 Maximum number of real-space cells 3x 3x 3
 Maximum number of reciprocal cells 3x 3x 3

 FEWALD executed in parallel
    FEWALD:  cpu time    0.0040: real time    0.0027


----------------------------------------- Iteration    1(   1)  ---------------------------------------


    POTLOK:  cpu time    0.0080: real time    0.0089
    SETDIJ:  cpu time    0.0040: real time    0.0038
     EDDAV:  cpu time    0.1160: real time    0.1167
       DOS:  cpu time    0.0080: real time    0.0075
    --------------------------------------------
      LOOP:  cpu time    0.1440: real time    0.1607

 eigenvalue-minimisations  :  2440
 total energy-change (2. order) : 0.9747822E+02  (-0.8222084E+03)
 number of electron      18.0000000 magnetization 
 augmentation part       18.0000000 magnetization 

 Free energy of the ion-electron system (eV)
  ---------------------------------------------------
  alpha Z        PSCENC =        50.17222034
  Ewald energy   TEWEN  =     -1044.83138452
  -Hartree energ DENC   =      -504.99582460
  -exchange      EXHF   =         0.00000000
  -V(xc)+E(xc)   XCENC  =       -20.59894587
  PAW double counting   =      1708.54112970    -1637.28476310
  entropy T*S    EENTRO =        -0.00059585
  eigenvalues    EBANDS =        30.27096869
  atomic energy  EATOM  =      1516.20541573
  Solvation  Ediel_sol  =         0.00000000
  ---------------------------------------------------
  free energy    TOTEN  =        97.47822052 eV

  energy without entropy =       97.47881637  energy(sigma->0) =       97.47851844


--------------------------------------------------------------------------------------------------------




----------------------------------------- Iteration    1(   2)  ---------------------------------------


     EDDAV:  cpu time    0.1400: real time    0.1396
       DOS:  cpu time    0.0000: real time    0.0017
    --------------------------------------------
      LOOP:  cpu time    0.1400: real time    0.1490

 eigenvalue-minimisations  :  2808
 total energy-change (2. order) :-0.9948794E+02  (-0.9497123E+02)
 number of electron      18.0000000 magnetization 
 augmentation part       18.0000000 magnetization 

 Free energy of the ion-electron system (eV)
  ---------------------------------------------------
  alpha Z        PSCENC =        50.17222034
  Ewald energy   TEWEN  =     -1044.83138452
  -Hartree energ DENC   =      -504.99582460
  -exchange      EXHF   =         0.00000000
  -V(xc)+E(xc)   XCENC  =       -20.59894587
  PAW double counting   =      1708.54112970    -1637.28476310
  entropy T*S    EENTRO =        -0.00000000
  eigenvalues    EBANDS =       -69.21756541
  atomic energy  EATOM  =      1516.20541573
  Solvation  Ediel_sol  =         0.00000000
  ---------------------------------------------------
  free energy    TOTEN  =        -2.00971774 eV

  energy without entropy =       -2.00971774  energy(sigma->0) =       -2.00971774


--------------------------------------------------------------------------------------------------------




----------------------------------------- Iteration    1(   3)  ---------------------------------------


     EDDAV:  cpu time    0.1320: real time    0.1327
       DOS:  cpu time    0.0000: real time    0.0006
    --------------------------------------------
      LOOP:  cpu time    0.1360: real time    0.1414

 eigenvalue-minimisations  :  3032
 total energy-change (2. order) :-0.3454948E+01  (-0.3451042E+01)
 number of electron      18.0000000 magnetization 
 augmentation part       18.0000000 magnetization 

 Free energy of the ion-electron system (eV)
  ---------------------------------------------------
  alpha Z        PSCENC =        50.17222034
  Ewald energy   TEWEN  =     -1044.83138452
  -Hartree energ DENC   =      -504.99582460
  -exchange      EXHF   =         0.00000000
  -V(xc)+E(xc)   XCENC  =       -20.59894587
  PAW double counting   =      1708.54112970    -1637.28476310
  entropy T*S    EENTRO =        -0.00000000
  eigenvalues    EBANDS =       -72.67251357
  atomic energy  EATOM  =      1516.20541573
  Solvation  Ediel_sol  =         0.00000000
  ---------------------------------------------------
  free energy    TOTEN  =        -5.46466589 eV

  energy without entropy =       -5.46466589  energy(sigma->0) =       -5.46466589


--------------------------------------------------------------------------------------------------------




----------------------------------------- Iteration    1(   4)  ---------------------------------------


     EDDAV:  cpu time    0.1520: real time    0.1542
       DOS:  cpu time    0.0040: real time    0.0026
    --------------------------------------------
      LOOP:  cpu time    0.1600: real time    0.1644

 eigenvalue-minimisations  :  3672
 total energy-change (2. order) :-0.2853325E-01  (-0.2853194E-01)
 number of electron      18.0000000 magnetization 
 augmentation part       18.0000000 magnetization 

 Free energy of the ion-electron system (eV)
  ---------------------------------------------------
  alpha Z        PSCENC =        50.17222034
  Ewald energy   TEWEN  =     -1044.83138452
  -Hartree energ DENC   =      -504.99582460
  -exchange      EXHF   =         0.00000000
  -V(xc)+E(xc)   XCENC  =       -20.59894587
  PAW double counting   =      1708.54112970    -1637.28476310
  entropy T*S    EENTRO =        -0.00000000
  eigenvalues    EBANDS =       -72.70104682
  atomic energy  EATOM  =      1516.20541573
  Solvation  Ediel_sol  =         0.00000000
  ---------------------------------------------------
  free energy    TOTEN  =        -5.49319914 eV

  energy without entropy =       -5.49319914  energy(sigma->0) =       -5.49319914


--------------------------------------------------------------------------------------------------------




----------------------------------------- Iteration    1(   5)  ---------------------------------------


     EDDAV:  cpu time    0.1400: real time    0.1403
       DOS:  cpu time    0.0040: real time    0.0014
    --------------------------------------------
      LOOP:  cpu time    0.1440: real time    0.1488

 eigenvalue-minimisations  :  3248
 total energy-change (2. order) :-0.5778714E-04  (-0.5778685E-04)
 number of electron      18.0000000 magnetization 
 augmentation part       18.0000000 magnetization 

 Free energy of the ion-electron system (eV)
  ---------------------------------------------------
  alpha Z        PSCENC =        50.17222034
  Ewald energy   TEWEN  =     -1044.83138452
  -Hartree energ DENC   =      -504.99582460
  -exchange      EXHF   =         0.00000000
  -V(xc)+E(xc)   XCENC  =       -20.59894587
  PAW double counting   =      1708.54112970    -1637.28476310
  entropy T*S    EENTRO =        -0.00000000
  eigenvalues    EBANDS =       -72.70110460
  atomic energy  EATOM  =      1516.20541573
  Solvation  Ediel_sol  =         0.00000000
  ---------------------------------------------------
  free energy    TOTEN  =        -5.49325693 eV

  energy without entropy =       -5.49325693  energy(sigma->0) =       -5.49325693


--------------------------------------------------------------------------------------------------------




----------------------------------------- Iteration    1(   6)  ---------------------------------------


     EDDAV:  cpu time    0.1480: real time    0.1504
       DOS:  cpu time    0.0040: real time    0.0012
    --------------------------------------------
      LOOP:  cpu time    0.1520: real time    0.1598

 eigenvalue-minimisations  :  3568
 total energy-change (2. order) :-0.1046965E-05  (-0.1046939E-05)
 number of electron      18.0000000 magnetization 
 augmentation part       18.0000000 magnetization 

 Free energy of the ion-electron system (eV)
  ---------------------------------------------------
  alpha Z        PSCENC =        50.17222034
  Ewald energy   TEWEN  =     -1044.83138452
  -Hartree energ DENC   =      -504.99582460
  -exchange      EXHF   =         0.00000000
  -V(xc)+E(xc)   XCENC  =       -20.59894587
  PAW double counting   =      1708.54112970    -1637.28476310
  entropy T*S    EENTRO =        -0.00000000
  eigenvalues    EBANDS =       -72.70110565
  atomic energy  EATOM  =      1516.20541573
  Solvation  Ediel_sol  =         0.00000000
  ---------------------------------------------------
  free energy    TOTEN  =        -5.49325797 eV

  energy without entropy =       -5.49325797  energy(sigma->0) =       -5.49325797


--------------------------------------------------------------------------------------------------------




----------------------------------------- Iteration    1(   7)  ---------------------------------------


     EDDAV:  cpu time    0.1280: real time    0.1279
       DOS:  cpu time    0.0000: real time    0.0011
    --------------------------------------------
      LOOP:  cpu time    0.1760: real time    0.1824

 eigenvalue-minimisations  :  2752
 total energy-change (2. order) :-0.1655189E-07  (-0.1663889E-07)
 number of electron      18.0000000 magnetization 
 augmentation part       18.0000000 magnetization 

 Free energy of the ion-electron system (eV)
  ---------------------------------------------------
  alpha Z        PSCENC =        50.17222034
  Ewald energy   TEWEN  =     -1044.83138452
  -Hartree energ DENC   =      -504.99582460
  -exchange      EXHF   =         0.00000000
  -V(xc)+E(xc)   XCENC  =       -20.59894587
  PAW double counting   =      1708.54112970    -1637.28476310
  entropy T*S    EENTRO =        -0.00000000
  eigenvalues    EBANDS =       -72.70110567
  atomic energy  EATOM  =      1516.20541573
  Solvation  Ediel_sol  =         0.00000000
  ---------------------------------------------------
  free energy    TOTEN  =        -5.49325799 eV

  energy without entropy =       -5.49325799  energy(sigma->0) =       -5.49325799


--------------------------------------------------------------------------------------------------------




 the core state eigenenergies are
   1-  1s -26513.5706  2s  -3930.7399  2p  -3525.9966  3s   -727.5628  3p   -594.8522
       3d   -387.3088  4s    -99.6505  4p    -60.6945
   2-  1s -31612.8737  2s  -4840.4554  2p  -4343.8509  3s   -956.6729  3p   -795.3307
       3d   -551.5808  4s   -156.1800  4p   -106.2196  4d    -33.5453
 
 E-fermi :   2.3770     XC(G=0):  -8.7634     alpha+bet : -7.4227


 k-point     1 :       0.0000    0.0000    0.0000
  band No.  band energies     occupation 
      1      -8.9586      2.00000
      2      -5.8303      2.00000
      3      -5.8303      2.00000
      4      -5.8303      2.00000
      5      -5.5525      2.00000
      6      -5.5525      2.00000
      7       2.2607      2.00000
      8       2.2607      2.00000
      9       2.2607      2.00000
     10       2.8942      0.00000
     11       6.7663      0.00000
     12       6.7663      0.00000
     13       6.7663      0.00000
     14       9.5086      0.00000
     15      11.5756      0.00000
     16      11.5756      0.00000

 k-point     2 :       0.1667    0.0000    0.0000
  band No.  band energies     occupation 
      1      -8.8533      2.00000
      2      -5.8105      2.00000
      3      -5.8105      2.00000
      4      -5.7518      2.00000
      5      -5.5538      2.00000
      6      -5.5538      2.00000
      7       0.4766      2.00000
      8       2.0263      2.00000
      9       2.0263      2.00000
     10       4.0146      0.00000
     11       6.8684      0.00000
     12       7.1086      0.00000
     13       7.1086      0.00000
     14      10.5095      0.00000
     15      10.6420      0.00000
     16      10.6420      0.00000

 k-point     3 :       0.3333    0.0000    0.0000
  band No.  band energies     occupation 
      1      -8.6392      2.00000
      2      -5.7764      2.00000
      3      -5.7764      2.00000
      4      -5.5497      2.00000
      5      -5.5497      2.00000
      6      -5.4788      2.00000
      7      -1.3822      2.00000
      8       1.6361      2.00000
      9       1.6361      2.00000
     10       4.0723      0.00000
     11       7.3914      0.00000
     12       7.3914      0.00000
     13       8.3866      0.00000
     14      10.1311      0.00000
     15      11.0519      0.00000
     16      11.0519      0.00000

 k-point     4 :       0.5000    0.0000    0.0000
  band No.  band energies     occupation 
      1      -8.5322      2.00000
      2      -5.7631      2.00000
      3      -5.7631      2.00000
      4      -5.5431      2.00000
      5      -5.5431      2.00000
      6      -5.2234      2.00000
      7      -2.2437      2.00000
      8       1.4671      2.00000
      9       1.4671      2.00000
     10       3.9608      0.00000
     11       7.3528      0.00000
     12       7.3528      0.00000
     13       9.1444      0.00000
     14      10.7397      0.00000
     15      12.4802      0.00000
     16      12.4802      0.00000

 k-point     5 :       0.1667    0.1667    0.0000
  band No.  band energies     occupation 
      1      -8.8185      2.00000
      2      -5.7904      2.00000
      3      -5.7904      2.00000
      4      -5.7552      2.00000
      5      -5.5621      2.00000
      6      -5.5443      2.00000
      7       0.4742      2.00000
      8       1.6385      2.00000
      9       1.6385      2.00000
     10       4.6764      0.00000
     11       5.8402      0.00000
     12       7.7264      0.00000
     13       7.7264      0.00000
     14       9.3083      0.00000
     15      11.2861      0.00000
     16      11.8149      0.00000

 k-point     6 :       0.3333    0.1667    0.0000
  band No.  band energies     occupation 
      1      -8.6412      2.00000
      2      -5.7644      2.00000
      3      -5.7517      2.00000
      4      -5.6152      2.00000
      5      -5.5382      2.00000
      6      -5.4973      2.00000
      7      -0.9174      2.00000
      8       1.1037      2.00000
      9       1.2214      2.00000
     10       5.0379      0.00000
     11       6.1894      0.00000
     12       7.8574      0.00000
     13       8.2937      0.00000
     14      10.0400      0.00000
     15      11.8730      0.00000
     16      11.9461      0.00000

 k-point     7 :       0.5000    0.1667    0.0000
  band No.  band energies     occupation 
      1      -8.5001      2.00000
      2      -5.7487      2.00000
      3      -5.7352      2.00000
      4      -5.5709      2.00000
      5      -5.5400      2.00000
      6      -5.2020      2.00000
      7      -2.0254      2.00000
      8       0.5676      2.00000
      9       1.1382      2.00000
     10       4.9410      0.00000
     11       6.8452      0.00000
     12       8.1087      0.00000
     13       8.7230      0.00000
     14      10.9318      0.00000
     15      12.1261      0.00000
     16      12.5749      0.00000

 k-point     8 :      -0.3333    0.1667    0.0000
  band No.  band energies     occupation 
      1      -8.5350      2.00000
      2      -5.7500      2.00000
      3      -5.7496      2.00000
      4      -5.5566      2.00000
      5      -5.5562      2.00000
      6      -5.2877      2.00000
      7      -1.7543      2.00000
      8       0.4296      2.00000
      9       1.4425      2.00000
     10       4.9981      0.00000
     11       7.0870      0.00000
     12       7.8039      0.00000
     13       8.4941      0.00000
     14      10.6442      0.00000
     15      11.2935      0.00000
     16      12.4761      0.00000

 k-point     9 :      -0.1667    0.1667    0.0000
  band No.  band energies     occupation 
      1      -8.7117      2.00000
      2      -5.7877      2.00000
      3      -5.7729      2.00000
      4      -5.6261      2.00000
      5      -5.5631      2.00000
      6      -5.5328      2.00000
      7      -0.5071      2.00000
      8       0.9732      2.00000
      9       1.9032      2.00000
     10       4.8404      0.00000
     11       6.8399      0.00000
     12       7.3394      0.00000
     13       7.6463      0.00000
     14       9.8857      0.00000
     15      11.1192      0.00000
     16      11.8746      0.00000

 k-point    10 :       0.3333    0.3333    0.0000
  band No.  band energies     occupation 
      1      -8.5370      2.00000
      2      -5.7033      2.00000
      3      -5.7033      2.00000
      4      -5.6575      2.00000
      5      -5.5281      2.00000
      6      -5.3902      2.00000
      7      -1.2650      2.00000
      8       0.7268      2.00000
      9       0.7268      2.00000
     10       4.8697      0.00000
     11       5.2942      0.00000
     12       9.4739      0.00000
     13       9.6832      0.00000
     14       9.6832      0.00000
     15      12.4775      0.00000
     16      14.0846      0.00000

 k-point    11 :       0.5000    0.3333    0.0000
  band No.  band energies     occupation 
      1      -8.4339      2.00000
      2      -5.7038      2.00000
      3      -5.6805      2.00000
      4      -5.6254      2.00000
      5      -5.5292      2.00000
      6      -5.1409      2.00000
      7      -1.9011      2.00000
      8       0.0503      2.00000
      9       0.5911      2.00000
     10       4.9620      0.00000
     11       5.8616      0.00000
     12       9.1269      0.00000
     13       9.8732      0.00000
     14      11.2338      0.00000
     15      12.8833      0.00000
     16      13.6541      0.00000

 k-point    12 :      -0.3333    0.3333    0.0000
  band No.  band energies     occupation 
      1      -8.4341      2.00000
      2      -5.7239      2.00000
      3      -5.7011      2.00000
      4      -5.5829      2.00000
      5      -5.5478      2.00000
      6      -5.0757      2.00000
      7      -1.9435      2.00000
      8      -0.4140      2.00000
      9       0.9068      2.00000
     10       5.1947      0.00000
     11       7.2843      0.00000
     12       9.0190      0.00000
     13       9.1356      0.00000
     14       9.6201      0.00000
     15      11.1764      0.00000
     16      14.3119      0.00000

 k-point    13 :       0.5000    0.5000    0.0000
  band No.  band energies     occupation 
      1      -8.3998      2.00000
      2      -5.6701      2.00000
      3      -5.6555      2.00000
      4      -5.6555      2.00000
      5      -5.5199      2.00000
      6      -5.0954      2.00000
      7      -2.1084      2.00000
      8       0.3530      2.00000
      9       0.3530      2.00000
     10       4.7082      0.00000
     11       4.8283      0.00000
     12      10.9483      0.00000
     13      11.2989      0.00000
     14      11.2989      0.00000
     15      13.0362      0.00000
     16      13.7462      0.00000

 k-point    14 :       0.5000    0.3333    0.1667
  band No.  band energies     occupation 
      1      -8.5020      2.00000
      2      -5.7288      2.00000
      3      -5.7214      2.00000
      4      -5.5992      2.00000
      5      -5.5394      2.00000
      6      -5.2659      2.00000
      7      -1.5814      2.00000
      8       0.1365      2.00000
      9       0.9093      2.00000
     10       5.7564      0.00000
     11       6.2761      0.00000
     12       7.4366      0.00000
     13       9.5780      0.00000
     14      10.3467      0.00000
     15      12.4325      0.00000
     16      13.6123      0.00000

 k-point    15 :      -0.3333    0.3333    0.1667
  band No.  band energies     occupation 
      1      -8.4341      2.00000
      2      -5.7210      2.00000
      3      -5.7055      2.00000
      4      -5.5795      2.00000
      5      -5.5500      2.00000
      6      -5.0746      2.00000
      7      -1.9821      2.00000
      8      -0.1831      2.00000
      9       0.6198      2.00000
     10       5.8864      0.00000
     11       6.7585      0.00000
     12       7.9100      0.00000
     13       9.4210      0.00000
     14      10.1234      0.00000
     15      12.6231      0.00000
     16      13.4044      0.00000

 k-point    16 :      -0.3333    0.5000    0.1667
  band No.  band energies     occupation 
      1      -8.4010      2.00000
      2      -5.6927      2.00000
      3      -5.6888      2.00000
      4      -5.6047      2.00000
      5      -5.5394      2.00000
      6      -5.0284      2.00000
      7      -2.0233      2.00000
      8      -0.0021      2.00000
      9       0.0814      2.00000
     10       5.8936      0.00000
     11       5.9108      0.00000
     12       8.8342      0.00000
     13       9.1101      0.00000
     14      11.7471      0.00000
     15      13.2782      0.00000
     16      13.4993      0.00000

 k-point    17 :       0.0000    0.0000    0.0000
  band No.  band energies     occupation 
      1      -8.9586      2.00000
      2      -5.8303      2.00000
      3      -5.8303      2.00000
      4      -5.8303      2.00000
      5      -5.5525      2.00000
      6      -5.5525      2.00000
      7       2.2607      2.00000
      8       2.2607      2.00000
      9       2.2607      2.00000
     10       2.8942      0.00000
     11       6.7663      0.00000
     12       6.7663      0.00000
     13       6.7663      0.00000
     14       9.5086      0.00000
     15      11.5756      0.00000
     16      11.5756      0.00000

 k-point    18 :       0.0083    0.0000    0.0083
  band No.  band energies     occupation 
      1      -8.9583      2.00000
      2      -5.8302      2.00000
      3      -5.8302      2.00000
      4      -5.8301      2.00000
      5      -5.5525      2.00000
      6      -5.5525      2.00000
      7       2.2426      2.00000
      8       2.2587      2.00000
      9       2.2587      2.00000
     10       2.9126      0.00000
     11       6.7622      0.00000
     12       6.7691      0.00000
     13       6.7691      0.00000
     14       9.5146      0.00000
     15      11.5462      0.00000
     16      11.5762      0.00000

 k-point    19 :       0.0167    0.0000    0.0167
  band No.  band energies     occupation 
      1      -8.9571      2.00000
      2      -5.8298      2.00000
      3      -5.8298      2.00000
      4      -5.8296      2.00000
      5      -5.5526      2.00000
      6      -5.5524      2.00000
      7       2.1935      2.00000
      8       2.2527      2.00000
      9       2.2527      2.00000
     10       2.9625      0.00000
     11       6.7502      0.00000
     12       6.7776      0.00000
     13       6.7776      0.00000
     14       9.5324      0.00000
     15      11.4696      0.00000
     16      11.5780      0.00000

 k-point    20 :       0.0250    0.0000    0.0250
  band No.  band energies     occupation 
      1      -8.9552      2.00000
      2      -5.8293      2.00000
      3      -5.8293      2.00000
      4      -5.8287      2.00000
      5      -5.5528      2.00000
      6      -5.5523      2.00000
      7       2.1236      2.00000
      8       2.2428      2.00000
      9       2.2428      2.00000
     10       3.0337      0.00000
     11       6.7305      0.00000
     12       6.7917      0.00000
     13       6.7917      0.00000
     14       9.5617      0.00000
     15      11.3654      0.00000
     16      11.5810      0.00000

 k-point    21 :       0.0333    0.0000    0.0333
  band No.  band energies     occupation 
      1      -8.9526      2.00000
      2      -5.8286      2.00000
      3      -5.8286      2.00000
      4      -5.8274      2.00000
      5      -5.5531      2.00000
      6      -5.5521      2.00000
      7       2.0412      2.00000
      8       2.2291      2.00000
      9       2.2291      2.00000
     10       3.1180      0.00000
     11       6.7036      0.00000
     12       6.8113      0.00000
     13       6.8113      0.00000
     14       9.6018      0.00000
     15      11.2467      0.00000
     16      11.5853      0.00000

 k-point    22 :       0.0417    0.0000    0.0417
  band No.  band energies     occupation 
      1      -8.9492      2.00000
      2      -5.8276      2.00000
      3      -5.8276      2.00000
      4      -5.8258      2.00000
      5      -5.5534      2.00000
      6      -5.5519      2.00000
      7       1.9515      2.00000
      8       2.2117      2.00000
      9       2.2117      2.00000
     10       3.2100      0.00000
     11       6.6702      0.00000
     12       6.8363      0.00000
     13       6.8363      0.00000
     14       9.6520      0.00000
     15      11.1207      0.00000
     16      11.5907      0.00000

 k-point    23 :       0.0500    0.0000    0.0500
  band No.  band energies     occupation 
      1      -8.9450      2.00000
      2      -5.8265      2.00000
      3      -5.8265      2.00000
      4      -5.8238      2.00000
      5      -5.5538      2.00000
      6      -5.5517      2.00000
      7       1.8573      2.00000
      8       2.1907      2.00000
      9       2.1907      2.00000
     10       3.3067      0.00000
     11       6.6311      0.00000
     12       6.8665      0.00000
     13       6.8665      0.00000
     14       9.7112      0.00000
     15      10.9914      0.00000
     16      11.5973      0.00000

 k-point    24 :       0.0583    0.0000    0.0583
  band No.  band energies     occupation 
      1      -8.9401      2.00000
      2      -5.8251      2.00000
      3      -5.8251      2.00000
      4      -5.8214      2.00000
      5      -5.5543      2.00000
      6      -5.5514      2.00000
      7       1.7606      2.00000
      8       2.1663      2.00000
      9       2.1663      2.00000
     10       3.4064      0.00000
     11       6.5870      0.00000
     12       6.9018      0.00000
     13       6.9018      0.00000
     14       9.7782      0.00000
     15      10.8615      0.00000
     16      11.6052      0.00000

 k-point    25 :       0.0667    0.0000    0.0667
  band No.  band energies     occupation 
      1      -8.9346      2.00000
      2      -5.8235      2.00000
      3      -5.8235      2.00000
      4      -5.8187      2.00000
      5      -5.5548      2.00000
      6      -5.5511      2.00000
      7       1.6622      2.00000
      8       2.1387      2.00000
      9       2.1387      2.00000
     10       3.5079      0.00000
     11       6.5386      0.00000
     12       6.9420      0.00000
     13       6.9420      0.00000
     14       9.8513      0.00000
     15      10.7335      0.00000
     16      11.6142      0.00000

 k-point    26 :       0.0750    0.0000    0.0750
  band No.  band energies     occupation 
      1      -8.9283      2.00000
      2      -5.8218      2.00000
      3      -5.8218      2.00000
      4      -5.8156      2.00000
      5      -5.5554      2.00000
      6      -5.5507      2.00000
      7       1.5628      2.00000
      8       2.1082      2.00000
      9       2.1082      2.00000
     10       3.6104      0.00000
     11       6.4868      0.00000
     12       6.9869      0.00000
     13       6.9869      0.00000
     14       9.9276      0.00000
     15      10.6107      0.00000
     16      11.6245      0.00000

 k-point    27 :       0.0833    0.0000    0.0833
  band No.  band energies     occupation 
      1      -8.9213      2.00000
      2      -5.8198      2.00000
      3      -5.8198      2.00000
      4      -5.8121      2.00000
      5      -5.5561      2.00000
      6      -5.5503      2.00000
      7       1.4630      2.00000
      8       2.0748      2.00000
      9       2.0748      2.00000
     10       3.7133      0.00000
     11       6.4321      0.00000
     12       7.0362      0.00000
     13       7.0362      0.00000
     14      10.0009      0.00000
     15      10.4993      0.00000
     16      11.6359      0.00000

 k-point    28 :       0.0917    0.0000    0.0917
  band No.  band energies     occupation 
      1      -8.9136      2.00000
      2      -5.8176      2.00000
      3      -5.8176      2.00000
      4      -5.8082      2.00000
      5      -5.5567      2.00000
      6      -5.5499      2.00000
      7       1.3629      2.00000
      8       2.0390      2.00000
      9       2.0390      2.00000
     10       3.8162      0.00000
     11       6.3752      0.00000
     12       7.0898      0.00000
     13       7.0898      0.00000
     14      10.0541      0.00000
     15      10.4165      0.00000
     16      11.6485      0.00000

 k-point    29 :       0.1000    0.0000    0.1000
  band No.  band energies     occupation 
      1      -8.9053      2.00000
      2      -5.8153      2.00000
      3      -5.8153      2.00000
      4      -5.8039      2.00000
      5      -5.5574      2.00000
      6      -5.5494      2.00000
      7       1.2628      2.00000
      8       2.0008      2.00000
      9       2.0008      2.00000
     10       3.9187      0.00000
     11       6.3167      0.00000
     12       7.1473      0.00000
     13       7.1473      0.00000
     14      10.0510      0.00000
     15      10.3986      0.00000
     16      11.6623      0.00000

 k-point    30 :       0.1083    0.0000    0.1083
  band No.  band energies     occupation 
      1      -8.8964      2.00000
      2      -5.8128      2.00000
      3      -5.8128      2.00000
      4      -5.7992      2.00000
      5      -5.5582      2.00000
      6      -5.5489      2.00000
      7       1.1628      2.00000
      8       1.9605      2.00000
      9       1.9605      2.00000
     10       4.0203      0.00000
     11       6.2570      0.00000
     12       7.2087      0.00000
     13       7.2087      0.00000
     14       9.9839      0.00000
     15      10.4531      0.00000
     16      11.6773      0.00000

 k-point    31 :       0.1167    0.0000    0.1167
  band No.  band energies     occupation 
      1      -8.8869      2.00000
      2      -5.8101      2.00000
      3      -5.8101      2.00000
      4      -5.7941      2.00000
      5      -5.5589      2.00000
      6      -5.5483      2.00000
      7       1.0631      2.00000
      8       1.9184      2.00000
      9       1.9184      2.00000
     10       4.1208      0.00000
     11       6.1966      0.00000
     12       7.2736      0.00000
     13       7.2736      0.00000
     14       9.8884      0.00000
     15      10.5447      0.00000
     16      11.6935      0.00000

 k-point    32 :       0.1250    0.0000    0.1250
  band No.  band energies     occupation 
      1      -8.8768      2.00000
      2      -5.8072      2.00000
      3      -5.8072      2.00000
      4      -5.7886      2.00000
      5      -5.5596      2.00000
      6      -5.5477      2.00000
      7       0.9637      2.00000
      8       1.8746      2.00000
      9       1.8746      2.00000
     10       4.2198      0.00000
     11       6.1360      0.00000
     12       7.3418      0.00000
     13       7.3418      0.00000
     14       9.7851      0.00000
     15      10.6525      0.00000
     16      11.7109      0.00000

 k-point    33 :       0.1333    0.0000    0.1333
  band No.  band energies     occupation 
      1      -8.8661      2.00000
      2      -5.8042      2.00000
      3      -5.8042      2.00000
      4      -5.7827      2.00000
      5      -5.5603      2.00000
      6      -5.5471      2.00000
      7       0.8648      2.00000
      8       1.8294      2.00000
      9       1.8294      2.00000
     10       4.3168      0.00000
     11       6.0754      0.00000
     12       7.4132      0.00000
     13       7.4132      0.00000
     14       9.6816      0.00000
     15      10.7694      0.00000
     16      11.7294      0.00000

 k-point    34 :       0.1417    0.0000    0.1417
  band No.  band energies     occupation 
      1      -8.8549      2.00000
      2      -5.8009      2.00000
      3      -5.8009      2.00000
      4      -5.7764      2.00000
      5      -5.5609      2.00000
      6      -5.5465      2.00000
      7       0.7663      2.00000
      8       1.7830      2.00000
      9       1.7830      2.00000
     10       4.4115      0.00000
     11       6.0153      0.00000
     12       7.4876      0.00000
     13       7.4876      0.00000
     14       9.5808      0.00000
     15      10.8923      0.00000
     16      11.7490      0.00000

 k-point    35 :       0.1500    0.0000    0.1500
  band No.  band energies     occupation 
      1      -8.8432      2.00000
      2      -5.7976      2.00000
      3      -5.7976      2.00000
      4      -5.7697      2.00000
      5      -5.5614      2.00000
      6      -5.5458      2.00000
      7       0.6684      2.00000
      8       1.7356      2.00000
      9       1.7356      2.00000
     10       4.5033      0.00000
     11       5.9558      0.00000
     12       7.5646      0.00000
     13       7.5646      0.00000
     14       9.4844      0.00000
     15      11.0199      0.00000
     16      11.7699      0.00000

 k-point    36 :       0.1583    0.0000    0.1583
  band No.  band energies     occupation 
      1      -8.8311      2.00000
      2      -5.7941      2.00000
      3      -5.7941      2.00000
      4      -5.7626      2.00000
      5      -5.5619      2.00000
      6      -5.5451      2.00000
      7       0.5710      2.00000
      8       1.6874      2.00000
      9       1.6874      2.00000
     10       4.5918      0.00000
     11       5.8974      0.00000
     12       7.6443      0.00000
     13       7.6443      0.00000
     14       9.3933      0.00000
     15      11.1514      0.00000
     16      11.7918      0.00000

 k-point    37 :       0.1667    0.0000    0.1667
  band No.  band energies     occupation 
      1      -8.8185      2.00000
      2      -5.7904      2.00000
      3      -5.7904      2.00000
      4      -5.7552      2.00000
      5      -5.5621      2.00000
      6      -5.5443      2.00000
      7       0.4742      2.00000
      8       1.6385      2.00000
      9       1.6385      2.00000
     10       4.6764      0.00000
     11       5.8402      0.00000
     12       7.7264      0.00000
     13       7.7264      0.00000
     14       9.3083      0.00000
     15      11.2861      0.00000
     16      11.8149      0.00000

 k-point    38 :       0.1750    0.0000    0.1750
  band No.  band energies     occupation 
      1      -8.8055      2.00000
      2      -5.7866      2.00000
      3      -5.7866      2.00000
      4      -5.7475      2.00000
      5      -5.5622      2.00000
      6      -5.5436      2.00000
      7       0.3781      2.00000
      8       1.5891      2.00000
      9       1.5891      2.00000
     10       4.7564      0.00000
     11       5.7847      0.00000
     12       7.8107      0.00000
     13       7.8107      0.00000
     14       9.2302      0.00000
     15      11.4237      0.00000
     16      11.8391      0.00000

 k-point    39 :       0.1833    0.0000    0.1833
  band No.  band energies     occupation 
      1      -8.7922      2.00000
      2      -5.7827      2.00000
      3      -5.7827      2.00000
      4      -5.7394      2.00000
      5      -5.5619      2.00000
      6      -5.5428      2.00000
      7       0.2826      2.00000
      8       1.5394      2.00000
      9       1.5394      2.00000
     10       4.8312      0.00000
     11       5.7311      0.00000
     12       7.8971      0.00000
     13       7.8971      0.00000
     14       9.1596      0.00000
     15      11.5638      0.00000
     16      11.8644      0.00000

 k-point    40 :       0.1917    0.0000    0.1917
  band No.  band energies     occupation 
      1      -8.7786      2.00000
      2      -5.7787      2.00000
      3      -5.7787      2.00000
      4      -5.7312      2.00000
      5      -5.5613      2.00000
      6      -5.5420      2.00000
      7       0.1879      2.00000
      8       1.4895      2.00000
      9       1.4895      2.00000
     10       4.8999      0.00000
     11       5.6799      0.00000
     12       7.9854      0.00000
     13       7.9854      0.00000
     14       9.0972      0.00000
     15      11.7061      0.00000
     16      11.8908      0.00000

 k-point    41 :       0.2000    0.0000    0.2000
  band No.  band energies     occupation 
      1      -8.7646      2.00000
      2      -5.7746      2.00000
      3      -5.7746      2.00000
      4      -5.7229      2.00000
      5      -5.5603      2.00000
      6      -5.5412      2.00000
      7       0.0940      2.00000
      8       1.4396      2.00000
      9       1.4396      2.00000
     10       4.9616      0.00000
     11       5.6316      0.00000
     12       8.0756      0.00000
     13       8.0756      0.00000
     14       9.0433      0.00000
     15      11.8501      0.00000
     16      11.9183      0.00000

 k-point    42 :       0.2083    0.0000    0.2083
  band No.  band energies     occupation 
      1      -8.7505      2.00000
      2      -5.7703      2.00000
      3      -5.7703      2.00000
      4      -5.7145      2.00000
      5      -5.5586      2.00000
      6      -5.5404      2.00000
      7       0.0008      2.00000
      8       1.3899      2.00000
      9       1.3899      2.00000
     10       5.0151      0.00000
     11       5.5869      0.00000
     12       8.1674      0.00000
     13       8.1674      0.00000
     14       8.9987      0.00000
     15      11.9468      0.00000
     16      11.9958      0.00000

 k-point    43 :       0.2167    0.0000    0.2167
  band No.  band energies     occupation 
      1      -8.7361      2.00000
      2      -5.7660      2.00000
      3      -5.7660      2.00000
      4      -5.7062      2.00000
      5      -5.5562      2.00000
      6      -5.5396      2.00000
      7      -0.0915      2.00000
      8       1.3403      2.00000
      9       1.3403      2.00000
     10       5.0593      0.00000
     11       5.5467      0.00000
     12       8.2609      0.00000
     13       8.2609      0.00000
     14       8.9637      0.00000
     15      11.9763      0.00000
     16      12.1427      0.00000

 k-point    44 :       0.2250    0.0000    0.2250
  band No.  band energies     occupation 
      1      -8.7215      2.00000
      2      -5.7617      2.00000
      3      -5.7617      2.00000
      4      -5.6982      2.00000
      5      -5.5530      2.00000
      6      -5.5388      2.00000
      7      -0.1830      2.00000
      8       1.2911      2.00000
      9       1.2911      2.00000
     10       5.0927      0.00000
     11       5.5122      0.00000
     12       8.3558      0.00000
     13       8.3558      0.00000
     14       8.9387      0.00000
     15      12.0069      0.00000
     16      12.2906      0.00000

 k-point    45 :       0.2333    0.0000    0.2333
  band No.  band energies     occupation 
      1      -8.7069      2.00000
      2      -5.7572      2.00000
      3      -5.7572      2.00000
      4      -5.6906      2.00000
      5      -5.5486      2.00000
      6      -5.5379      2.00000
      7      -0.2735      2.00000
      8       1.2424      2.00000
      9       1.2424      2.00000
     10       5.1139      0.00000
     11       5.4843      0.00000
     12       8.4521      0.00000
     13       8.4521      0.00000
     14       8.9240      0.00000
     15      12.0384      0.00000
     16      12.4391      0.00000

 k-point    46 :       0.2417    0.0000    0.2417
  band No.  band energies     occupation 
      1      -8.6921      2.00000
      2      -5.7527      2.00000
      3      -5.7527      2.00000
      4      -5.6837      2.00000
      5      -5.5430      2.00000
      6      -5.5371      2.00000
      7      -0.3631      2.00000
      8       1.1943      2.00000
      9       1.1943      2.00000
     10       5.1224      0.00000
     11       5.4637      0.00000
     12       8.5497      0.00000
     13       8.5497      0.00000
     14       8.9198      0.00000
     15      12.0709      0.00000
     16      12.5878      0.00000

 k-point    47 :       0.2500    0.0000    0.2500
  band No.  band energies     occupation 
      1      -8.6774      2.00000
      2      -5.7482      2.00000
      3      -5.7482      2.00000
      4      -5.6775      2.00000
      5      -5.5362      2.00000
      6      -5.5359      2.00000
      7      -0.4516      2.00000
      8       1.1468      2.00000
      9       1.1468      2.00000
     10       5.1189      0.00000
     11       5.4495      0.00000
     12       8.6485      0.00000
     13       8.6485      0.00000
     14       8.9260      0.00000
     15      12.1043      0.00000
     16      12.7363      0.00000

 k-point    48 :       0.2583    0.0000    0.2583
  band No.  band energies     occupation 
      1      -8.6626      2.00000
      2      -5.7436      2.00000
      3      -5.7436      2.00000
      4      -5.6722      2.00000
      5      -5.5354      2.00000
      6      -5.5274      2.00000
      7      -0.5391      2.00000
      8       1.1000      2.00000
      9       1.1000      2.00000
     10       5.1055      0.00000
     11       5.4398      0.00000
     12       8.7484      0.00000
     13       8.7484      0.00000
     14       8.9425      0.00000
     15      12.1385      0.00000
     16      12.8843      0.00000

[...]
      1      -8.4901      2.00000
      2      -5.6875      2.00000
      3      -5.6875      2.00000
      4      -5.6602      2.00000
      5      -5.5253      2.00000
      6      -5.3098      2.00000
      7      -1.5401      2.00000
      8       0.5961      2.00000
      9       0.5961      2.00000
     10       4.7864      0.00000
     11       5.1766      0.00000
     12       9.8455      0.00000
     13      10.1069      0.00000
     14      10.1069      0.00000
     15      12.6358      0.00000
     16      14.4274      0.00000

 k-point    62 :       0.3750    0.0000    0.3750
  band No.  band energies     occupation 
      1      -8.4797      2.00000
      2      -5.6839      2.00000
      3      -5.6839      2.00000
      4      -5.6611      2.00000
      5      -5.5247      2.00000
      6      -5.2893      2.00000
      7      -1.6028      2.00000
      8       0.5673      2.00000
      9       0.5673      2.00000
     10       4.7699      0.00000
     11       5.1458      0.00000
     12       9.9428      0.00000
     13      10.2118      0.00000
     14      10.2118      0.00000
     15      12.6746      0.00000
     16      14.4794      0.00000

 k-point    63 :       0.3833    0.0000    0.3833
  band No.  band energies     occupation 
      1      -8.4697      2.00000
      2      -5.6804      2.00000
      3      -5.6804      2.00000
      4      -5.6620      2.00000
      5      -5.5241      2.00000
      6      -5.2691      2.00000
      7      -1.6627      2.00000
      8       0.5403      2.00000
      9       0.5403      2.00000
     10       4.7552      0.00000
     11       5.1150      0.00000
     12      10.0405      0.00000
     13      10.3158      0.00000
     14      10.3158      0.00000
     15      12.7128      0.00000
     16      14.5163      0.00000

 k-point    64 :       0.3917    0.0000    0.3917
  band No.  band energies     occupation 
      1      -8.4604      2.00000
      2      -5.6772      2.00000
      3      -5.6772      2.00000
      4      -5.6629      2.00000
      5      -5.5235      2.00000
      6      -5.2492      2.00000
      7      -1.7197      2.00000
      8       0.5150      2.00000
      9       0.5150      2.00000
     10       4.7423      0.00000
     11       5.0846      0.00000
     12      10.1378      0.00000
     13      10.4186      0.00000
     14      10.4186      0.00000
     15      12.7501      0.00000
     16      14.5354      0.00000

 k-point    65 :       0.4000    0.0000    0.4000
  band No.  band energies     occupation 
      1      -8.4517      2.00000
      2      -5.6741      2.00000
      3      -5.6741      2.00000
      4      -5.6638      2.00000
      5      -5.5230      2.00000
      6      -5.2298      2.00000
      7      -1.7736      2.00000
      8       0.4914      2.00000
      9       0.4914      2.00000
     10       4.7311      0.00000
     11       5.0548      0.00000
     12      10.2338      0.00000
     13      10.5197      0.00000
     14      10.5197      0.00000
     15      12.7863      0.00000
     16      14.5516      0.00000

 k-point    66 :       0.4083    0.0000    0.4083
  band No.  band energies     occupation 
      1      -8.4436      2.00000
      2      -5.6712      2.00000
      3      -5.6712      2.00000
      4      -5.6647      2.00000
      5      -5.5225      2.00000
      6      -5.2110      2.00000
      7      -1.8241      2.00000
      8       0.4696      2.00000
      9       0.4696      2.00000
     10       4.7218      0.00000
     11       5.0258      0.00000
     12      10.3279      0.00000
     13      10.6188      0.00000
     14      10.6188      0.00000
     15      12.8212      0.00000
     16      14.5532      0.00000

 k-point    67 :       0.4167    0.0000    0.4167
  band No.  band energies     occupation 
      1      -8.4361      2.00000
      2      -5.6686      2.00000
      3      -5.6686      2.00000
      4      -5.6656      2.00000
      5      -5.5221      2.00000
      6      -5.1930      2.00000
      7      -1.8711      2.00000
      8       0.4495      2.00000
      9       0.4495      2.00000
     10       4.7143      0.00000
     11       4.9978      0.00000
     12      10.4191      0.00000
     13      10.7151      0.00000
     14      10.7151      0.00000
     15      12.8545      0.00000
     16      14.4448      0.00000

 k-point    68 :       0.4250    0.0000    0.4250
  band No.  band energies     occupation 
      1      -8.4293      2.00000
      2      -5.6664      2.00000
      3      -5.6662      2.00000
      4      -5.6662      2.00000
      5      -5.5217      2.00000
      6      -5.1761      2.00000
      7      -1.9144      2.00000
      8       0.4314      2.00000
      9       0.4314      2.00000
     10       4.7085      0.00000
     11       4.9711      0.00000
     12      10.5065      0.00000
     13      10.8079      0.00000
     14      10.8079      0.00000
     15      12.8859      0.00000
     16      14.3327      0.00000

 k-point    69 :       0.4333    0.0000    0.4333
  band No.  band energies     occupation 
      1      -8.4232      2.00000
      2      -5.6671      2.00000
      3      -5.6640      2.00000
      4      -5.6640      2.00000
      5      -5.5213      2.00000
      6      -5.1604      2.00000
      7      -1.9538      2.00000
      8       0.4150      2.00000
      9       0.4150      2.00000
     10       4.7043      0.00000
     11       4.9457      0.00000
     12      10.5891      0.00000
     13      10.8965      0.00000
     14      10.8965      0.00000
     15      12.9151      0.00000
     16      14.2226      0.00000

 k-point    70 :       0.4417    0.0000    0.4417
  band No.  band energies     occupation 
      1      -8.4177      2.00000
      2      -5.6678      2.00000
      3      -5.6620      2.00000
      4      -5.6620      2.00000
      5      -5.5210      2.00000
      6      -5.1460      2.00000
      7      -1.9892      2.00000
      8       0.4006      2.00000
      9       0.4006      2.00000
     10       4.7018      0.00000
     11       4.9220      0.00000
     12      10.6659      0.00000
     13      10.9798      0.00000
     14      10.9798      0.00000
     15      12.9418      0.00000
     16      14.1218      0.00000

 k-point    71 :       0.4500    0.0000    0.4500
  band No.  band energies     occupation 
      1      -8.4130      2.00000
      2      -5.6684      2.00000
      3      -5.6603      2.00000
      4      -5.6603      2.00000
      5      -5.5207      2.00000
      6      -5.1331      2.00000
      7      -2.0202      2.00000
      8       0.3880      2.00000
      9       0.3880      2.00000
     10       4.7007      0.00000
     11       4.9001      0.00000
     12      10.7358      0.00000
     13      11.0565      0.00000
     14      11.0565      0.00000
     15      12.9658      0.00000
     16      14.0301      0.00000

 k-point    72 :       0.4583    0.0000    0.4583
  band No.  band energies     occupation 
      1      -8.4090      2.00000
      2      -5.6689      2.00000
      3      -5.6588      2.00000
      4      -5.6588      2.00000
      5      -5.5204      2.00000
      6      -5.1219      2.00000
      7      -2.0468      2.00000
      8       0.3773      2.00000
      9       0.3773      2.00000
     10       4.7009      0.00000
     11       4.8804      0.00000
     12      10.7975      0.00000
     13      11.1254      0.00000
     14      11.1254      0.00000
     15      12.9866      0.00000
     16      13.9487      0.00000

 k-point    73 :       0.4667    0.0000    0.4667
  band No.  band energies     occupation 
      1      -8.4057      2.00000
      2      -5.6694      2.00000
      3      -5.6576      2.00000
      4      -5.6576      2.00000
      5      -5.5202      2.00000
      6      -5.1125      2.00000
      7      -2.0688      2.00000
      8       0.3686      2.00000
      9       0.3686      2.00000
     10       4.7021      0.00000
     11       4.8631      0.00000
     12      10.8500      0.00000
     13      11.1848      0.00000
     14      11.1848      0.00000
     15      13.0041      0.00000
     16      13.8788      0.00000

 k-point    74 :       0.4750    0.0000    0.4750
  band No.  band energies     occupation 
      1      -8.4031      2.00000
      2      -5.6697      2.00000
      3      -5.6567      2.00000
      4      -5.6567      2.00000
      5      -5.5201      2.00000
      6      -5.1051      2.00000
      7      -2.0860      2.00000
      8       0.3617      2.00000
      9       0.3617      2.00000
     10       4.7040      0.00000
     11       4.8487      0.00000
     12      10.8922      0.00000
     13      11.2333      0.00000
     14      11.2333      0.00000
     15      13.0180      0.00000
     16      13.8222      0.00000

 k-point    75 :       0.4833    0.0000    0.4833
  band No.  band energies     occupation 
      1      -8.4013      2.00000
      2      -5.6699      2.00000
      3      -5.6560      2.00000
      4      -5.6560      2.00000
      5      -5.5200      2.00000
      6      -5.0997      2.00000
      7      -2.0984      2.00000
      8       0.3569      2.00000
      9       0.3569      2.00000
     10       4.7060      0.00000
     11       4.8377      0.00000
     12      10.9231      0.00000
     13      11.2693      0.00000
     14      11.2693      0.00000
     15      13.0281      0.00000
     16      13.7804      0.00000

 k-point    76 :       0.4917    0.0000    0.4917
  band No.  band energies     occupation 
      1      -8.4002      2.00000
      2      -5.6701      2.00000
      3      -5.6556      2.00000
      4      -5.6556      2.00000
      5      -5.5199      2.00000
      6      -5.0965      2.00000
      7      -2.1059      2.00000
      8       0.3539      2.00000
      9       0.3539      2.00000
     10       4.7076      0.00000
     11       4.8307      0.00000
     12      10.9419      0.00000
     13      11.2914      0.00000
     14      11.2914      0.00000
     15      13.0342      0.00000
     16      13.7548      0.00000


--------------------------------------------------------------------------------------------------------


 soft charge-density along one line, spin component           1
         0         1         2         3         4         5         6         7         8         9
 total charge-density along one line
 
 pseudopotential strength for first ion, spin component:           1
-17.748   0.000   0.000   0.000   0.000 -17.795   0.000   0.000
  0.000 -17.748   0.000  -0.000  -0.000   0.000 -17.795   0.000
  0.000   0.000 -17.747   0.000  -0.000   0.000   0.000 -17.794
  0.000  -0.000   0.000 -17.748   0.000   0.000  -0.000   0.000
  0.000  -0.000  -0.000   0.000 -17.747   0.000  -0.000  -0.000
-17.795   0.000   0.000   0.000   0.000 -17.822   0.000   0.000
  0.000 -17.795   0.000  -0.000  -0.000   0.000 -17.822   0.000
  0.000   0.000 -17.794   0.000  -0.000   0.000   0.000 -17.821
  0.000  -0.000   0.000 -17.795   0.000   0.000  -0.000   0.000
  0.000  -0.000  -0.000   0.000 -17.794   0.000  -0.000  -0.000
  0.000  -0.000  -0.000  -0.000  -0.000   0.000  -0.000  -0.000
  0.000  -0.000  -0.000  -0.000  -0.000   0.000  -0.000  -0.000
 -0.000   0.000  -0.000  -0.001  -0.000  -0.000   0.000  -0.000
 -0.001  -0.000  -0.000  -0.000  -0.000  -0.001  -0.000  -0.000
 -0.000  -0.001  -0.000   0.000   0.000  -0.000  -0.001  -0.000
 -0.000   0.000  -0.000  -0.001  -0.000  -0.000   0.000  -0.000
 -0.001  -0.000  -0.000  -0.000  -0.000  -0.001  -0.000  -0.000
 -0.000  -0.001  -0.000   0.000   0.000  -0.000  -0.001  -0.000
 total augmentation occupancy for first ion, spin component:           1
  2.000   0.000   0.000   0.000   0.000   0.000   0.000   0.000   0.000   0.000   0.000   0.000   0.000   0.000   0.000   0.000
  0.000   2.000   0.000   0.000   0.000   0.000   0.000   0.000   0.000   0.000   0.000   0.000   0.000   0.000   0.000   0.000
  0.000   0.000   2.000   0.000   0.000   0.000   0.000   0.000   0.000   0.000   0.000   0.000   0.000   0.000   0.000   0.000
  0.000   0.000   0.000   2.000   0.000   0.000   0.000   0.000   0.000   0.000   0.000   0.000   0.000   0.000   0.000   0.000
  0.000   0.000   0.000   0.000   2.000   0.000   0.000   0.000   0.000   0.000   0.000   0.000   0.000   0.000   0.000   0.000
  0.000   0.000   0.000   0.000   0.000   0.000   0.000   0.000   0.000   0.000   0.000   0.000   0.000   0.000   0.000   0.000
  0.000   0.000   0.000   0.000   0.000   0.000   0.000   0.000   0.000   0.000   0.000   0.000   0.000   0.000   0.000   0.000
  0.000   0.000   0.000   0.000   0.000   0.000   0.000   0.000   0.000   0.000   0.000   0.000   0.000   0.000   0.000   0.000
  0.000   0.000   0.000   0.000   0.000   0.000   0.000   0.000   0.000   0.000   0.000   0.000   0.000   0.000   0.000   0.000
  0.000   0.000   0.000   0.000   0.000   0.000   0.000   0.000   0.000   0.000   0.000   0.000   0.000   0.000   0.000   0.000
  0.000   0.000   0.000   0.000   0.000   0.000   0.000   0.000   0.000   0.000   2.000   0.000   0.000   0.000   0.000   0.000
  0.000   0.000   0.000   0.000   0.000   0.000   0.000   0.000   0.000   0.000   0.000   0.000   0.000   0.000   0.000   0.000
  0.000   0.000   0.000   0.000   0.000   0.000   0.000   0.000   0.000   0.000   0.000   0.000   0.000   0.000   0.000   0.000
  0.000   0.000   0.000   0.000   0.000   0.000   0.000   0.000   0.000   0.000   0.000   0.000   0.000   0.000   0.000   0.000
  0.000   0.000   0.000   0.000   0.000   0.000   0.000   0.000   0.000   0.000   0.000   0.000   0.000   0.000   0.000   0.000
  0.000   0.000   0.000   0.000   0.000   0.000   0.000   0.000   0.000   0.000   0.000   0.000   0.000   0.000   0.000   0.000
  0.000   0.000   0.000   0.000   0.000   0.000   0.000   0.000   0.000   0.000   0.000   0.000   0.000   0.000   0.000   0.000
  0.000   0.000   0.000   0.000   0.000   0.000   0.000   0.000   0.000   0.000   0.000   0.000   0.000   0.000   0.000   0.000


------------------------ aborting loop because EDIFF is reached ----------------------------------------


 


 total charge     
 
# of ion     s       p       d       tot
----------------------------------------
  1        0.473   0.320   9.522  10.315
  2        1.351   2.041   0.022   3.414
------------------------------------------------
tot        1.824   2.361   9.544  13.729
 
    CHARGE:  cpu time    0.0080: real time    0.0084
    FORLOC:  cpu time    0.0040: real time    0.0006
    FORNL :  cpu time    0.0120: real time    0.0123
    STRESS:  cpu time    0.1280: real time    0.1288
    FORCOR:  cpu time    0.0120: real time    0.0093
    FORHAR:  cpu time    0.0000: real time    0.0021
    OFIELD:  cpu time    0.0000: real time    0.0001

  FORCE on cell =-STRESS in cart. coord.  units (eV):
  Direction    XX          YY          ZZ          XY          YZ          ZX
  --------------------------------------------------------------------------------------
  Alpha Z    50.17222    50.17222    50.17222
  Ewald    -348.27726  -348.27726  -348.27726     0.00000     0.00000     0.00000
  Hartree   166.39054   166.39054   166.39054     0.00000    -0.00000    -0.00000
  E(xc)     -86.51613   -86.51613   -86.51613    -0.00000     0.00000     0.00000
  Local     -18.13000   -18.13000   -18.13000     0.00001    -0.00001    -0.00001
  n-local    21.77380    27.04899    26.17482    -1.74284    -3.04445    -1.13548
  augment     5.57736     5.57736     5.57736    -0.00001     0.00001     0.00001
  Kinetic   200.21809   203.72155   203.96489    -1.61817    -3.08908    -1.23070
  Fock        0.00000     0.00000     0.00000     0.00000     0.00000     0.00000
  -------------------------------------------------------------------------------------
  Total      -3.14923    -3.14923    -3.14923    -0.00000     0.00000     0.00000
  in kB     -74.08111   -74.08111   -74.08111    -0.00000     0.00000     0.00000
  external pressure =      -74.08 kB  Pullay stress =        0.00 kB


 VOLUME and BASIS-vectors are now :
 -----------------------------------------------------------------------------
  energy-cutoff  :      500.00
  volume of cell :       68.11
      direct lattice vectors                 reciprocal lattice vectors
     3.241350000  3.241350000  0.000000000     0.154256714  0.154256714  0.154256714
     3.241350000  0.000000000 -3.241350000     0.154256714 -0.154256714 -0.154256714
     0.000000000  3.241350000 -3.241350000    -0.154256714  0.154256714 -0.154256714

  length of vectors
     4.583961130  4.583961130  4.583961130     0.267180466  0.267180466  0.267180466


 FORCES acting on ions
    electron-ion (+dipol)            ewald-force                    non-local-force                 convergence-correction
 -----------------------------------------------------------------------------------------------
   -.322E-06 -.323E-06 0.323E-06   -.744E-14 -.454E-14 0.998E-14   0.139E-16 0.139E-16 -.312E-16   0.552E-06 0.552E-06 0.550E-06
   0.157E-06 0.163E-06 -.163E-06   0.759E-14 0.606E-14 -.102E-13   0.260E-16 0.125E-15 -.278E-16   0.131E-06 0.131E-06 0.131E-06
 -----------------------------------------------------------------------------------------------
   -.165E-06 -.160E-06 0.160E-06   0.152E-15 0.152E-14 -.238E-15   0.399E-16 0.139E-15 -.590E-16   0.683E-06 0.683E-06 0.680E-06
 
 
 POSITION                                       TOTAL-FORCE (eV/Angst)
 -----------------------------------------------------------------------------------
      0.00000      0.00000      0.00000        -0.000000     -0.000000      0.000000
      1.62068      1.62068     -1.62068         0.000000      0.000000     -0.000000
 -----------------------------------------------------------------------------------
    total drift:                                0.000001      0.000001      0.000001


--------------------------------------------------------------------------------------------------------



  FREE ENERGIE OF THE ION-ELECTRON SYSTEM (eV)
  ---------------------------------------------------
  free  energy   TOTEN  =        -5.49325799 eV

  energy  without entropy=       -5.49325799  energy(sigma->0) =       -5.49325799
 


--------------------------------------------------------------------------------------------------------


    POTLOK:  cpu time    0.0120: real time    0.0119


--------------------------------------------------------------------------------------------------------




--------------------------------------------------------------------------------------------------------


 writing wavefunctions
     LOOP+:  cpu time    2.2761: real time    2.6382
    4ORBIT:  cpu time    0.0000: real time    0.0000
 


 total charge     
 
# of ion     s       p       d       tot
----------------------------------------
  1        0.473   0.320   9.522  10.315
  2        1.351   2.041   0.022   3.414
------------------------------------------------
tot        1.824   2.361   9.544  13.729
 

 total amount of memory used by VASP on root node    40117. kBytes
========================================================================

   base      :      30000. kBytes
   nonl-proj :       6576. kBytes
   fftplans  :        768. kBytes
   grid      :       1202. kBytes
   one-center:         15. kBytes
   wavefun   :       1556. kBytes
 
  
  
 General timing and accounting informations for this job:
 ========================================================
  
                  Total CPU time used (sec):        5.424
                            User time (sec):        3.556
                          System time (sec):        1.868
                         Elapsed time (sec):        8.674
  
                   Maximum memory used (kb):       34804.
                   Average memory used (kb):           0.
  
                          Minor page faults:         9085
                          Major page faults:            0
                 Voluntary context switches:          951
