 vasp.5.4.1 24Jun15 (build Nov 25 2015 16:01:35) complex                        
  
 executed on         CrayXC-Intel date 2016.06.08  23:22:43
 running on   24 total cores
 distrk:  each k-point on   24 cores,    1 groups
 distr:  one band on NCORES_PER_BAND=   3 cores,    8 groups


--------------------------------------------------------------------------------------------------------


 INCAR:
 POTCAR:    PAW_PBE C 08Apr2002                   
 POTCAR:    PAW_PBE N 08Apr2002                   
 POTCAR:    PAW_PBE H 15Jun2001                   
 POTCAR:    PAW_PBE Pb_d 06Sep2000                
 POTCAR:    PAW_PBE I 08Apr2002                   
 POTCAR:    PAW_PBE C 08Apr2002                   
   VRHFIN =C: s2p2                                                              
   LEXCH  = PE                                                                  
   EATOM  =   147.1560 eV,   10.8157 Ry                                         
                                                                                
   TITEL  = PAW_PBE C 08Apr2002                                                 
   LULTRA =        F    use ultrasoft PP ?                                      
   IUNSCR =        1    unscreen: 0-lin 1-nonlin 2-no                           
   RPACOR =    1.200    partial core radius                                     
   POMASS =   12.011; ZVAL   =    4.000    mass and valenz                      
   RCORE  =    1.500    outmost cutoff radius                                   
   RWIGS  =    1.630; RWIGS  =    0.863    wigner-seitz radius (au A)           
   ENMAX  =  400.000; ENMIN  =  300.000 eV                                      
   ICORE  =        2    local potential                                         
   LCOR   =        T    correct aug charges                                     
   LPAW   =        T    paw PP                                                  
   EAUG   =  644.873                                                            
   DEXC   =    0.000                                                            
   RMAX   =    1.529    core radius for proj-oper                               
   RAUG   =    1.300    factor for augmentation sphere                          
   RDEP   =    1.501    radius for radial grids                                 
   RDEPT  =    1.300    core radius for aug-charge                              
                                                                                
   Atomic configuration                                                         
    4 entries                                                                   
     n  l   j            E        occ.                                          
     1  0  0.50      -273.3789   2.0000                                         
     2  0  0.50       -13.7508   2.0000                                         
     2  1  0.50        -5.2854   2.0000                                         
     3  2  1.50        -5.4423   0.0000                                         
   Description                                                                  
     l       E           TYP  RCUT    TYP  RCUT                                 
     0    -13.7508458     23  1.200                                             
     0     -8.2022199     23  1.200                                             
     1     -5.2854383     23  1.500                                             
     1     34.0145650     23  1.500                                             
     2     -5.4423304      7  1.500                                             
  local pseudopotential read in
  partial core-charges read in
  partial kinetic energy density read in
  atomic valenz-charges read in
  non local Contribution for L=           0  read in
    real space projection operators read in
  non local Contribution for L=           0  read in
    real space projection operators read in
  non local Contribution for L=           1  read in
    real space projection operators read in
  non local Contribution for L=           1  read in
    real space projection operators read in
    PAW grid and wavefunctions read in
 
   number of l-projection  operators is LMAX  =           4
   number of lm-projection operators is LMMAX =           8
 
 POTCAR:    PAW_PBE N 08Apr2002                   
   VRHFIN =N: s2p3                                                              
   LEXCH  = PE                                                                  
   EATOM  =   264.5486 eV,   19.4438 Ry                                         
                                                                                
   TITEL  = PAW_PBE N 08Apr2002                                                 
   LULTRA =        F    use ultrasoft PP ?                                      
   IUNSCR =        1    unscreen: 0-lin 1-nonlin 2-no                           
   RPACOR =    1.200    partial core radius                                     
   POMASS =   14.001; ZVAL   =    5.000    mass and valenz                      
   RCORE  =    1.500    outmost cutoff radius                                   
   RWIGS  =    1.400; RWIGS  =    0.741    wigner-seitz radius (au A)           
   ENMAX  =  400.000; ENMIN  =  300.000 eV                                      
   ICORE  =        2    local potential                                         
   LCOR   =        T    correct aug charges                                     
   LPAW   =        T    paw PP                                                  
   EAUG   =  627.112                                                            
   DEXC   =    0.000                                                            
   RMAX   =    1.529    core radius for proj-oper                               
   RAUG   =    1.300    factor for augmentation sphere                          
   RDEP   =    1.514    radius for radial grids                                 
   RDEPT  =    1.338    core radius for aug-charge                              
                                                                                
   Atomic configuration                                                         
    4 entries                                                                   
     n  l   j            E        occ.                                          
     1  0  0.50      -384.7179   2.0000                                         
     2  0  0.50       -18.5828   2.0000                                         
     2  1  0.50        -7.0898   3.0000                                         
     3  2  1.50        -6.8029   0.0000                                         
   Description                                                                  
     l       E           TYP  RCUT    TYP  RCUT                                 
     0    -18.5828119     23  1.200                                             
     0    -13.5018863     23  1.200                                             
     1     -7.0897853     23  1.500                                             
     1      9.5240782     23  1.500                                             
     2     -6.8029130      7  1.500                                             
  local pseudopotential read in
  partial core-charges read in
  partial kinetic energy density read in
  atomic valenz-charges read in
  non local Contribution for L=           0  read in
    real space projection operators read in
  non local Contribution for L=           0  read in
    real space projection operators read in
  non local Contribution for L=           1  read in
    real space projection operators read in
  non local Contribution for L=           1  read in
    real space projection operators read in
    PAW grid and wavefunctions read in
 
   number of l-projection  operators is LMAX  =           4
   number of lm-projection operators is LMMAX =           8
 
 POTCAR:    PAW_PBE H 15Jun2001                   
   VRHFIN =H: ultrasoft test                                                    
   LEXCH  = PE                                                                  
   EATOM  =    12.4884 eV,    0.9179 Ry                                         
                                                                                
   TITEL  = PAW_PBE H 15Jun2001                                                 
   LULTRA =        F    use ultrasoft PP ?                                      
   IUNSCR =        0    unscreen: 0-lin 1-nonlin 2-no                           
   RPACOR =    0.000    partial core radius                                     
   POMASS =    1.000; ZVAL   =    1.000    mass and valenz                      
   RCORE  =    1.100    outmost cutoff radius                                   
   RWIGS  =    0.700; RWIGS  =    0.370    wigner-seitz radius (au A)           
   ENMAX  =  250.000; ENMIN  =  200.000 eV                                      
   RCLOC  =    0.701    cutoff for local pot                                    
   LCOR   =        T    correct aug charges                                     
   LPAW   =        T    paw PP                                                  
   EAUG   =  400.000                                                            
   RMAX   =    1.123    core radius for proj-oper                               
   RAUG   =    1.200    factor for augmentation sphere                          
   RDEP   =    1.112    radius for radial grids                                 
   RDEPT  =    0.926    core radius for aug-charge                              
                                                                                
   Atomic configuration                                                         
    2 entries                                                                   
     n  l   j            E        occ.                                          
     1  0  0.50        -6.4927   1.0000                                         
     2  1  0.50        -3.4015   0.0000                                         
   Description                                                                  
     l       E           TYP  RCUT    TYP  RCUT                                 
     0     -6.4927494     23  1.100                                             
     0      6.8029130     23  1.100                                             
     1     -4.0817478     23  1.100                                             
  local pseudopotential read in
  atomic valenz-charges read in
  non local Contribution for L=           0  read in
    real space projection operators read in
  non local Contribution for L=           0  read in
    real space projection operators read in
  non local Contribution for L=           1  read in
    real space projection operators read in
    PAW grid and wavefunctions read in
 
   number of l-projection  operators is LMAX  =           3
   number of lm-projection operators is LMMAX =           5
 
 POTCAR:    PAW_PBE Pb_d 06Sep2000                
   VRHFIN =Pb:                                                                  
   LEXCH  = PE                                                                  
   EATOM  =  1661.6185 eV,  122.1255 Ry                                         
                                                                                
   TITEL  = PAW_PBE Pb_d 06Sep2000                                              
   LULTRA =        F    use ultrasoft PP ?                                      
   IUNSCR =        1    unscreen: 0-lin 1-nonlin 2-no                           
   RPACOR =    2.200    partial core radius                                     
   POMASS =  207.200; ZVAL   =   14.000    mass and valenz                      
   RCORE  =    2.500    outmost cutoff radius                                   
   RWIGS  =    3.260; RWIGS  =    1.725    wigner-seitz radius (au A)           
   ENMAX  =  237.835; ENMIN  =  178.376 eV                                      
   ICORE  =        3    local potential                                         
   LCOR   =        T    correct aug charges                                     
   LPAW   =        T    paw PP                                                  
   EAUG   =  391.914                                                            
   DEXC   =    0.000                                                            
   RMAX   =    2.565    core radius for proj-oper                               
   RAUG   =    1.300    factor for augmentation sphere                          
   RDEP   =    2.643    radius for radial grids                                 
   RDEPT  =    2.092    core radius for aug-charge                              
                                                                                
   Atomic configuration                                                         
   16 entries                                                                   
     n  l   j            E        occ.                                          
     1  0  0.50    -88091.8466   2.0000                                         
     2  0  0.50    -15753.4197   2.0000                                         
     2  1  1.50    -13508.1797   6.0000                                         
     3  0  0.50     -3781.7194   2.0000                                         
     3  1  1.50     -3138.2529   6.0000                                         
     3  2  2.50     -2483.2977  10.0000                                         
     4  0  0.50      -856.2895   2.0000                                         
     4  1  1.50      -645.4942   6.0000                                         
     4  2  2.50      -401.8768  10.0000                                         
     4  3  3.50      -132.9059  14.0000                                         
     5  0  0.50      -144.0950   2.0000                                         
     5  1  1.50       -85.7879   6.0000                                         
     5  2  2.50       -21.1769  10.0000                                         
     6  0  0.50       -12.0372   2.0000                                         
     6  1  1.50        -3.4971   2.0000                                         
     5  3  2.50        -2.7212   0.0000                                         
   Description                                                                  
     l       E           TYP  RCUT    TYP  RCUT                                 
     2    -21.1768523     23  2.500                                             
     2      1.3605826     23  2.500                                             
     0    -12.0371562     23  2.500                                             
     0     13.6058260     23  2.500                                             
     1     -3.4971339     23  2.500                                             
     1     13.6058260     23  2.500                                             
     3     -1.3605826      7  2.500                                             
  local pseudopotential read in
  partial core-charges read in
  partial kinetic energy density read in
  atomic valenz-charges read in
  non local Contribution for L=           2  read in
    real space projection operators read in
  non local Contribution for L=           2  read in
    real space projection operators read in
  non local Contribution for L=           0  read in
    real space projection operators read in
  non local Contribution for L=           0  read in
    real space projection operators read in
  non local Contribution for L=           1  read in
    real space projection operators read in
  non local Contribution for L=           1  read in
    real space projection operators read in
    PAW grid and wavefunctions read in
 
   number of l-projection  operators is LMAX  =           6
   number of lm-projection operators is LMMAX =          18
 
 POTCAR:    PAW_PBE I 08Apr2002                   
   VRHFIN =I : s2p5                                                             
   LEXCH  = PE                                                                  
   EATOM  =   315.8678 eV,   23.2156 Ry                                         
                                                                                
   TITEL  = PAW_PBE I 08Apr2002                                                 
   LULTRA =        F    use ultrasoft PP ?                                      
   IUNSCR =        1    unscreen: 0-lin 1-nonlin 2-no                           
   RPACOR =    2.200    partial core radius                                     
   POMASS =  126.904; ZVAL   =    7.000    mass and valenz                      
   RCORE  =    2.300    outmost cutoff radius                                   
   RWIGS  =    2.810; RWIGS  =    1.487    wigner-seitz radius (au A)           
   ENMAX  =  175.647; ENMIN  =  131.735 eV                                      
   ICORE  =        3    local potential                                         
   LCOR   =        T    correct aug charges                                     
   LPAW   =        T    paw PP                                                  
   EAUG   =  370.139                                                            
   DEXC   =    0.000                                                            
   RMAX   =    2.359    core radius for proj-oper                               
   RAUG   =    1.300    factor for augmentation sphere                          
   RDEP   =    2.392    radius for radial grids                                 
   RDEPT  =    2.170    core radius for aug-charge                              
                                                                                
   Atomic configuration                                                         
   13 entries                                                                   
     n  l   j            E        occ.                                          
     1  0  0.50    -32976.3739   2.0000                                         
     2  0  0.50     -5094.5933   2.0000                                         
     2  1  1.50     -4572.0131   6.0000                                         
     3  0  0.50     -1028.2813   2.0000                                         
     3  1  1.50      -859.0250   6.0000                                         
     3  2  2.50      -605.7620  10.0000                                         
     4  0  0.50      -180.5540   2.0000                                         
     4  1  1.50      -127.5306   6.0000                                         
     4  2  2.50       -50.2720  10.0000                                         
     5  0  0.50       -17.4058   2.0000                                         
     5  1  0.50        -7.0851   5.0000                                         
     5  2  1.50        -7.0750   0.0000                                         
     4  3  2.50        -7.0750   0.0000                                         
   Description                                                                  
     l       E           TYP  RCUT    TYP  RCUT                                 
     0    -17.4058016     23  2.300                                             
     0    -18.7663842     23  2.300                                             
     1     -7.0850686     23  2.300                                             
     1     -4.2150896     23  2.300                                             
     2     -7.0750295     23  2.300                                             
     3     -1.3605826     23  2.300                                             
  local pseudopotential read in
  partial core-charges read in
  partial kinetic energy density read in
  atomic valenz-charges read in
  non local Contribution for L=           0  read in
    real space projection operators read in
  non local Contribution for L=           0  read in
    real space projection operators read in
  non local Contribution for L=           1  read in
    real space projection operators read in
  non local Contribution for L=           1  read in
    real space projection operators read in
  non local Contribution for L=           2  read in
    real space projection operators read in
    PAW grid and wavefunctions read in
 
   number of l-projection  operators is LMAX  =           5
   number of lm-projection operators is LMMAX =          13
 

 ----------------------------------------------------------------------------- 
|                                                                             |
|  ADVICE TO THIS USER RUNNING 'VASP/VAMP'   (HEAR YOUR MASTER'S VOICE ...):  |
|                                                                             |
|      You have a (more or less) 'large supercell' and for larger cells       |
|      it might be more efficient to use real space projection opertators     |
|      So try LREAL= Auto  in the INCAR   file.                               |
|      Mind: At the moment your POTCAR file does not contain real space       |
|       projectors, and has to be modified,  BUT if you                       |
|      want to do an extremely  accurate calculation you might also keep the  |
|      reciprocal projection scheme          (i.e. LREAL=.FALSE.)             |
|                                                                             |
 ----------------------------------------------------------------------------- 


 ----------------------------------------------------------------------------- 
|                                                                             |
|  ADVICE TO THIS USER RUNNING 'VASP/VAMP'   (HEAR YOUR MASTER'S VOICE ...):  |
|                                                                             |
|      You enforced a specific xc-type in the INCAR file,                     |
|      a different type was found on the POTCAR file                          |
|          I HOPE YOU KNOW, WHAT YOU ARE  DOING                               |
|                                                                             |
 ----------------------------------------------------------------------------- 

  PAW_PBE C 08Apr2002                   :
 energy of atom  1       EATOM= -147.1560
 kinetic energy error for atom=    0.0032 (will be added to EATOM!!)
  PAW_PBE N 08Apr2002                   :
 energy of atom  2       EATOM= -264.5486
 kinetic energy error for atom=    0.0061 (will be added to EATOM!!)
  PAW_PBE H 15Jun2001                   :
 energy of atom  3       EATOM=  -12.4884
 kinetic energy error for atom=    0.0002 (will be added to EATOM!!)
  PAW_PBE Pb_d 06Sep2000                :
 energy of atom  4       EATOM=-1661.6185
 kinetic energy error for atom=    0.0012 (will be added to EATOM!!)
  PAW_PBE I 08Apr2002                   :
 energy of atom  5       EATOM= -315.8678
 kinetic energy error for atom=    0.0003 (will be added to EATOM!!)
 
 
 POSCAR: C N H Pb I                              
  positions in direct lattice
  No initial velocities read in
 exchange correlation table for  LEXCH =       14
   RHO(1)=    0.500       N(1)  =     2000
   RHO(2)=  100.500       N(2)  =     4000
 


--------------------------------------------------------------------------------------------------------


 ion  position               nearest neighbor table
   1  0.206  0.250  0.215-  33 1.10  25 1.10  17 1.11   9 1.50
   2  0.688  0.250  0.243-  34 1.10  26 1.10  18 1.11  10 1.49
   3  0.188  0.750  0.243-  35 1.10  27 1.10  19 1.11  11 1.49
   4  0.706  0.750  0.215-  36 1.10  28 1.10  20 1.11  12 1.50
   5  0.206  0.250  0.715-  37 1.10  29 1.10  21 1.11  13 1.50
   6  0.688  0.250  0.743-  38 1.10  30 1.10  22 1.11  14 1.49
   7  0.188  0.750  0.743-  39 1.10  31 1.10  23 1.11  15 1.49
   8  0.706  0.750  0.715-  40 1.10  32 1.10  24 1.11  16 1.50
   9  0.307  0.250  0.275-  57 1.05  41 1.05  49 1.05   1 1.50
  10  0.802  0.250  0.273-  42 1.05  50 1.05  58 1.06   2 1.49
  11  0.302  0.750  0.273-  43 1.05  51 1.05  59 1.06   3 1.49
  12  0.807  0.750  0.275-  60 1.05  44 1.05  52 1.05   4 1.50
  13  0.307  0.250  0.775-  61 1.05  45 1.05  53 1.05   5 1.50
  14  0.802  0.250  0.773-  46 1.05  54 1.05  62 1.06   6 1.49
  15  0.302  0.750  0.773-  47 1.05  55 1.05  63 1.06   7 1.49
  16  0.807  0.750  0.775-  64 1.05  48 1.05  56 1.05   8 1.50
  17  0.226  0.250  0.130-   1 1.11
  18  0.684  0.250  0.156-   2 1.11
  19  0.184  0.750  0.156-   3 1.11
  20  0.726  0.750  0.130-   4 1.11
  21  0.226  0.250  0.630-   5 1.11
  22  0.684  0.250  0.656-   6 1.11
  23  0.184  0.750  0.656-   7 1.11
  24  0.726  0.750  0.630-   8 1.11
  25  0.160  0.322  0.236-   1 1.10
  26  0.649  0.322  0.275-   2 1.10
  27  0.149  0.822  0.275-   3 1.10
  28  0.660  0.822  0.236-   4 1.10
  29  0.160  0.322  0.736-   5 1.10
  30  0.649  0.322  0.775-   6 1.10
  31  0.149  0.822  0.775-   7 1.10
  32  0.660  0.822  0.736-   8 1.10
  33  0.160  0.177  0.237-   1 1.10
  34  0.649  0.177  0.275-   2 1.10
  35  0.149  0.677  0.275-   3 1.10
  36  0.660  0.677  0.237-   4 1.10
  37  0.160  0.177  0.737-   5 1.10
  38  0.649  0.177  0.775-   6 1.10
  39  0.149  0.677  0.775-   7 1.10
  40  0.660  0.677  0.737-   8 1.10
  41  0.353  0.318  0.257-   9 1.05
  42  0.843  0.318  0.244-  10 1.05
  43  0.343  0.818  0.244-  11 1.05
  44  0.853  0.818  0.257-  12 1.05
  45  0.353  0.318  0.757-  13 1.05
  46  0.843  0.318  0.744-  14 1.05
  47  0.343  0.818  0.744-  15 1.05
  48  0.853  0.818  0.757-  16 1.05
  49  0.353  0.182  0.257-   9 1.05
  50  0.843  0.182  0.244-  10 1.05
  51  0.343  0.682  0.244-  11 1.05
  52  0.853  0.682  0.257-  12 1.05
  53  0.353  0.182  0.757-  13 1.05
  54  0.843  0.182  0.744-  14 1.05
  55  0.343  0.682  0.744-  15 1.05
  56  0.853  0.682  0.757-  16 1.05
  57  0.293  0.250  0.356-   9 1.05
  58  0.813  0.250  0.355-  10 1.06
  59  0.313  0.750  0.355-  11 1.06
  60  0.793  0.750  0.356-  12 1.05
  61  0.293  0.250  0.856-  13 1.05
  62  0.813  0.250  0.855-  14 1.06
  63  0.313  0.750  0.855-  15 1.06
  64  0.793  0.750  0.856-  16 1.05
  65  0.472  0.501  0.489-  90 3.10  85 3.14  77 3.17  87 3.18  73 3.22  89 3.28
  66  0.972  0.499  0.489-  89 3.10  88 3.14  78 3.17  86 3.18  74 3.22  90 3.28
  67  0.472  0.999  0.489-  92 3.10  85 3.14  79 3.17  87 3.18  75 3.22  91 3.28
  68  0.972  0.001  0.489-  91 3.10  88 3.14  80 3.17  86 3.18  76 3.22  92 3.28
  69  0.472  0.501  0.989-  94 3.10  81 3.14  73 3.17  83 3.18  77 3.22  93 3.28
  70  0.972  0.499  0.989-  93 3.10  84 3.14  74 3.17  82 3.18  78 3.22  94 3.28
  71  0.472  0.999  0.989-  96 3.10  81 3.14  75 3.17  83 3.18  79 3.22  95 3.28
  72  0.972  0.001  0.989-  95 3.10  84 3.14  76 3.17  82 3.18  80 3.22  96 3.28
  73  0.455  0.501  0.238-  69 3.17  65 3.22
  74  0.955  0.499  0.238-  70 3.17  66 3.22
  75  0.455  0.999  0.238-  71 3.17  67 3.22
  76  0.955  0.001  0.238-  72 3.17  68 3.22
  77  0.455  0.501  0.738-  65 3.17  69 3.22
  78  0.955  0.499  0.738-  66 3.17  70 3.22
  79  0.455  0.999  0.738-  67 3.17  71 3.22
  80  0.955  0.001  0.738-  68 3.17  72 3.22
  81  0.477  0.250  0.007-  71 3.14  69 3.14
  82  0.922  0.250  0.017-  72 3.18  70 3.18
  83  0.422  0.750  0.017-  69 3.18  71 3.18
  84  0.977  0.750  0.007-  70 3.14  72 3.14
  85  0.477  0.250  0.507-  67 3.14  65 3.14
  86  0.922  0.250  0.517-  68 3.18  66 3.18
  87  0.422  0.750  0.517-  65 3.18  67 3.18
  88  0.977  0.750  0.507-  66 3.14  68 3.14
  89  0.216  0.467  0.461-  66 3.10  65 3.28
  90  0.716  0.533  0.461-  65 3.10  66 3.28
  91  0.216  0.033  0.461-  68 3.10  67 3.28
  92  0.716  0.967  0.461-  67 3.10  68 3.28
  93  0.216  0.467  0.961-  70 3.10  69 3.28
  94  0.716  0.533  0.961-  69 3.10  70 3.28
  95  0.216  0.033  0.961-  72 3.10  71 3.28
  96  0.716  0.967  0.961-  71 3.10  72 3.28
 
  LATTYP: Found a triclinic cell.
 ALAT       =    17.8238589327
 B/A-ratio  =     0.6989248630
 C/A-ratio  =     1.0156975818
 COS(alpha) =     0.0001355172
 COS(beta)  =     0.5146378593
 COS(gamma) =     0.6988877578
  
  Lattice vectors:
  
 A1 = (  -0.1406063366, -12.4576271275, -12.7466742118)
 A2 = (  -0.0011956322, -12.4575380825,   0.0007464135)
 A3 = ( -12.7162481321,  -0.0020049566, -12.8856194186)


Analysis of symmetry for initial positions (statically):
=====================================================================
 Subroutine PRICEL returns following result:
 
  LATTYP: Found a triclinic cell.
 ALAT       =     8.8502626515
 B/A-ratio  =     1.4075896561
 C/A-ratio  =     0.7202149489
 COS(alpha) =     0.0000518785
 COS(beta)  =     0.0156138721
 COS(gamma) =     0.7036188608
  
  Lattice vectors:
  
 A1 = (  -6.2878208978,   6.2278110854,  -0.0694726034)
 A2 = (   0.0011956322,  12.4575380825,  -0.0007464135)
 A3 = (  -0.0697053522,  -0.0000445225,  -6.3737103126)
 
   4 primitive cells build up your supercell.
 

 Routine SETGRP: Setting up the symmetry group for a 
 triclinic supercell.


 Subroutine GETGRP returns: Found  1 space group operations
 (whereof  1 operations were pure point group operations)
 out of a pool of  2 trial point group operations.


The static configuration has the point symmetry C_1 .


Analysis of symmetry for dynamics (positions and initial velocities):
=====================================================================
 Subroutine PRICEL returns following result:
 
  LATTYP: Found a triclinic cell.
 ALAT       =     8.8502626515
 B/A-ratio  =     1.4075896561
 C/A-ratio  =     0.7202149489
 COS(alpha) =     0.0000518785
 COS(beta)  =     0.0156138721
 COS(gamma) =     0.7036188608
  
  Lattice vectors:
  
 A1 = (  -6.2878208978,   6.2278110854,  -0.0694726034)
 A2 = (   0.0011956322,  12.4575380825,  -0.0007464135)
 A3 = (  -0.0697053522,  -0.0000445225,  -6.3737103126)
 
   4 primitive cells build up your supercell.
 

 Routine SETGRP: Setting up the symmetry group for a 
 triclinic supercell.


 Subroutine GETGRP returns: Found  1 space group operations
 (whereof  1 operations were pure point group operations)
 out of a pool of  2 trial point group operations.


The dynamic configuration has the point symmetry C_1 .


 Subroutine INISYM returns: Found  1 space group operations
 (whereof  1 operations are pure point group operations),
 and found     4 'primitive' translations

 
 
 KPOINTS: Automatic 3x3x3                         

Automatic generation of k-mesh.
Space group operators:
 irot       det(A)        alpha          n_x          n_y          n_z        tau_x        tau_y        tau_z
    1     1.000000     0.000000     1.000000     0.000000     0.000000     0.000000     0.000000     0.000000
 
 Subroutine IBZKPT returns following result:
 ===========================================
 
 Found     14 irreducible k-points:
 
 Following reciprocal coordinates:
            Coordinates               Weight
  0.000000  0.000000  0.000000      1.000000
  0.333333 -0.000000 -0.000000      2.000000
  0.000000  0.333333 -0.000000      2.000000
  0.333333  0.333333  0.000000      2.000000
 -0.333333  0.333333  0.000000      2.000000
  0.000000  0.000000  0.333333      2.000000
  0.333333  0.000000  0.333333      2.000000
 -0.333333  0.000000  0.333333      2.000000
  0.000000  0.333333  0.333333      2.000000
  0.333333  0.333333  0.333333      2.000000
 -0.333333  0.333333  0.333333      2.000000
  0.000000 -0.333333  0.333333      2.000000
  0.333333 -0.333333  0.333333      2.000000
 -0.333333 -0.333333  0.333333      2.000000
 
 Following cartesian coordinates:
            Coordinates               Weight
  0.000000  0.000000  0.000000      1.000000
  0.026507 -0.000003 -0.000290      2.000000
 -0.000004  0.026758 -0.000000      2.000000
  0.026503  0.026755 -0.000290      2.000000
 -0.026511  0.026760  0.000290      2.000000
 -0.000287  0.000002  0.026152      2.000000
  0.026220 -0.000001  0.025862      2.000000
 -0.026794  0.000004  0.026442      2.000000
 -0.000291  0.026759  0.026152      2.000000
  0.026215  0.026757  0.025862      2.000000
 -0.026798  0.026762  0.026442      2.000000
 -0.000283 -0.026756  0.026152      2.000000
  0.026224 -0.026759  0.025862      2.000000
 -0.026790 -0.026753  0.026442      2.000000
 


--------------------------------------------------------------------------------------------------------




 Dimension of arrays:
   k-points           NKPTS =     14   k-points in BZ     NKDIM =     14   number of bands    NBANDS=    256
   number of dos      NEDOS =    301   number of ions     NIONS =     96
   non local maximal  LDIM  =      6   non local SUM 2l+1 LMDIM =     18
   total plane-waves  NPLWV = ******
   max r-space proj   IRMAX =      1   max aug-charges    IRDMAX= 314103
   dimension x,y,z NGX =   112 NGY =  108 NGZ =  112
   dimension x,y,z NGXF=   224 NGYF=  216 NGZF=  224
   support grid    NGXF=   448 NGYF=  432 NGZF=  448
   ions per type =               8   8  48   8  24
 NGX,Y,Z   is equivalent  to a cutoff of  14.80, 14.41, 14.61 a.u.
 NGXF,Y,Z  is equivalent  to a cutoff of  29.61, 28.83, 29.21 a.u.


 I would recommend the setting:
   dimension x,y,z NGX =   109 NGY =  107 NGZ =  110
 SYSTEM =  MAPbI3-Cubic                            
 POSCAR =  C N H Pb I                              

 Startparameter for this run:
   NWRITE =      2    write-flag & timer
   PREC   = accura    normal or accurate (medium, high low for compatibility)
   ISTART =      0    job   : 0-new  1-cont  2-samecut
   ICHARG =      2    charge: 1-file 2-atom 10-const
   ISPIN  =      1    spin polarized calculation?
   LNONCOLLINEAR =      F non collinear calculations
   LSORBIT =      F    spin-orbit coupling
   INIWAV =      1    electr: 0-lowe 1-rand  2-diag
   LASPH  =      F    aspherical Exc in radial PAW
   METAGGA=      F    non-selfconsistent MetaGGA calc.

 Electronic Relaxation 1
   ENCUT  =  700.0 eV  51.45 Ry    7.17 a.u.  27.13 26.87 27.50*2*pi/ulx,y,z
   ENINI  =  700.0     initial cutoff
   ENAUG  =  644.9 eV  augmentation charge cutoff
   NELM   =     60;   NELMIN=  2; NELMDL= -5     # of ELM steps 
   EDIFF  = 0.1E-07   stopping-criterion for ELM
   LREAL  =      F    real-space projection
   NLSPLINE    = F    spline interpolate recip. space projectors
   LCOMPAT=      F    compatible to vasp.4.4
   GGA_COMPAT  = T    GGA compatible to vasp.4.4-vasp.4.6
   LMAXPAW     = -100 max onsite density
   LMAXMIX     =    2 max onsite mixed and CHGCAR
   VOSKOWN=      0    Vosko Wilk Nusair interpolation
   ROPT   =    0.00000   0.00000   0.00000   0.00000
   ROPT   =    0.00000
 Ionic relaxation
   EDIFFG = 0.1E-06   stopping-criterion for IOM
   NSW    =      0    number of steps for IOM
   NBLOCK =      1;   KBLOCK =      1    inner block; outer block 
   IBRION =     -1    ionic relax: 0-MD 1-quasi-New 2-CG
   NFREE  =      0    steps in history (QN), initial steepest desc. (CG)
   ISIF   =      2    stress and relaxation
   IWAVPR =     10    prediction:  0-non 1-charg 2-wave 3-comb
   ISYM   =      2    0-nonsym 1-usesym 2-fastsym
   LCORR  =      T    Harris-Foulkes like correction to forces

   POTIM  = 0.5000    time-step for ionic-motion
   TEIN   =    0.0    initial temperature
   TEBEG  =    0.0;   TEEND  =   0.0 temperature during run
   SMASS  =  -3.00    Nose mass-parameter (am)
   estimated Nose-frequenzy (Omega)   =  0.10E-29 period in steps =****** mass=  -0.362E-26a.u.
   SCALEE = 1.0000    scale energy and forces
   NPACO  =    256;   APACO  = 16.0  distance and # of slots for P.C.
   PSTRESS=    0.0 pullay stress

  Mass of Ions in am
   POMASS =  12.01 14.00  1.00207.20126.90
  Ionic Valenz
   ZVAL   =   4.00  5.00  1.00 14.00  7.00
  Atomic Wigner-Seitz radii
   RWIGS  =  -1.00 -1.00 -1.00 -1.00 -1.00
  virtual crystal weights 
   VCA    =   1.00  1.00  1.00  1.00  1.00
   NELECT =     400.0000    total number of electrons
   NUPDOWN=      -1.0000    fix difference up-down

 DOS related values:
   EMIN   =  10.00;   EMAX   =-10.00  energy-range for DOS
   EFERMI =   0.00
   ISMEAR =     0;   SIGMA  =   0.00  broadening in eV -4-tet -1-fermi 0-gaus

 Electronic relaxation 2 (details)
   IALGO  =     38    algorithm
   LDIAG  =      T    sub-space diagonalisation (order eigenvalues)
   LSUBROT=      F    optimize rotation matrix (better conditioning)
   TURBO    =      0    0=normal 1=particle mesh
   IRESTART =      0    0=no restart 2=restart with 2 vectors
   NREBOOT  =      0    no. of reboots
   NMIN     =      0    reboot dimension
   EREF     =   0.00    reference energy to select bands
   IMIX   =      4    mixing-type and parameters
     AMIX     =   0.40;   BMIX     =  1.00
     AMIX_MAG =   1.60;   BMIX_MAG =  1.00
     AMIN     =   0.10
     WC   =   100.;   INIMIX=   1;  MIXPRE=   1;  MAXMIX= -45

 Intra band minimization:
   WEIMIN = 0.0000     energy-eigenvalue tresh-hold
   EBREAK =  0.98E-11  absolut break condition
   DEPER  =   0.30     relativ break condition  

   TIME   =   0.40     timestep for ELM

  volume/ion in A,a.u.               =      20.80       140.38
  Fermi-wavevector in a.u.,A,eV,Ry     =   0.957863  1.810099 12.483376  0.917502
  Thomas-Fermi vector in A             =   2.086919
 
 Write flags
   LWAVE  =      F    write WAVECAR
   LCHARG =      F    write CHGCAR
   LVTOT  =      F    write LOCPOT, total local potential
   LVHAR  =      F    write LOCPOT, Hartree potential only
   LELF   =      F    write electronic localiz. function (ELF)
   LORBIT =      0    0 simple, 1 ext, 2 COOP (PROOUT)


 Dipole corrections
   LMONO  =      F    monopole corrections only (constant potential shift)
   LDIPOL =      F    correct potential (dipole corrections)
   IDIPOL =      0    1-x, 2-y, 3-z, 4-all directions 
   EPSILON=  1.0000000 bulk dielectric constant

 Exchange correlation treatment:
   GGA     =    PS    GGA type
   LEXCH   =    14    internal setting for exchange type
   VOSKOWN=      0    Vosko Wilk Nusair interpolation
   LHFCALC =     F    Hartree Fock is set to
   LHFONE  =     F    Hartree Fock one center treatment
   AEXX    =    0.0000 exact exchange contribution

 Linear response parameters
   LEPSILON=     F    determine dielectric tensor
   LRPA    =     F    only Hartree local field effects (RPA)
   LNABLA  =     F    use nabla operator in PAW spheres
   LVEL    =     F    velocity operator in full k-point grid
   LINTERFAST=   F  fast interpolation
   KINTER  =     0    interpolate to denser k-point grid
   CSHIFT  =0.1000    complex shift for real part using Kramers Kronig
   OMEGAMAX=  -1.0    maximum frequency
   DEG_THRESHOLD= 0.2000000E-02 threshold for treating states as degnerate
   RTIME   =    0.100 relaxation time in fs

 Orbital magnetization related:
   ORBITALMAG=     F  switch on orbital magnetization
   LCHIMAG   =     F  perturbation theory with respect to B field
   DQ        =  0.001000  dq finite difference perturbation B field



--------------------------------------------------------------------------------------------------------


 Static calculation
 charge density and potential will be updated during run
 non-spin polarized calculation
 Variant of blocked Davidson
 Davidson routine will perform the subspace rotation
 perform sub-space diagonalisation
    after iterative eigenvector-optimisation
 modified Broyden-mixing scheme, WC =      100.0
 initial mixing is a Kerker type mixing with AMIX =  0.4000 and BMIX =      1.0000
 Hartree-type preconditioning will be used
 using additional bands           56
 reciprocal scheme for non local part
 use partial core corrections
 calculate Harris-corrections to forces 
   (improved forces if not selfconsistent)
 use gradient corrections 
 use of overlap-Matrix (Vanderbilt PP)
 Gauss-broadening in eV      SIGMA  =   0.00


--------------------------------------------------------------------------------------------------------


  energy-cutoff  :      700.00
  volume of cell :     1996.98
      direct lattice vectors                 reciprocal lattice vectors
    12.576837428  0.001915912  0.138198793     0.079520802 -0.000007684 -0.000869670
     0.001195632 12.457538083 -0.000746413    -0.000012224  0.080272684 -0.000000427
     0.139410704  0.000089045 12.747420625    -0.000862111  0.000004784  0.078456671

  length of vectors
    12.577596840 12.457538162 12.748182927     0.079525558  0.080272685  0.078461408


 
 k-points in units of 2pi/SCALE and weight: Automatic 3x3x3                         
   0.00000000  0.00000000  0.00000000       0.037
   0.02650693 -0.00000256 -0.00028989       0.074
  -0.00000407  0.02675756 -0.00000014       0.074
   0.02650286  0.02675500 -0.00029003       0.074
  -0.02651101  0.02676012  0.00028975       0.074
  -0.00028737  0.00000159  0.02615222       0.074
   0.02621956 -0.00000097  0.02586233       0.074
  -0.02679430  0.00000416  0.02644211       0.074
  -0.00029144  0.02675916  0.02615208       0.074
   0.02621549  0.02675659  0.02586219       0.074
  -0.02679838  0.02676172  0.02644197       0.074
  -0.00028330 -0.02675597  0.02615237       0.074
   0.02622364 -0.02675853  0.02586248       0.074
  -0.02679023 -0.02675341  0.02644226       0.074
 
 k-points in reciprocal lattice and weights: Automatic 3x3x3                         
   0.00000000  0.00000000  0.00000000       0.037
   0.33333333 -0.00000000 -0.00000000       0.074
   0.00000000  0.33333333 -0.00000000       0.074
   0.33333333  0.33333333  0.00000000       0.074
  -0.33333333  0.33333333  0.00000000       0.074
   0.00000000  0.00000000  0.33333333       0.074
   0.33333333  0.00000000  0.33333333       0.074
  -0.33333333  0.00000000  0.33333333       0.074
   0.00000000  0.33333333  0.33333333       0.074
   0.33333333  0.33333333  0.33333333       0.074
  -0.33333333  0.33333333  0.33333333       0.074
   0.00000000 -0.33333333  0.33333333       0.074
   0.33333333 -0.33333333  0.33333333       0.074
  -0.33333333 -0.33333333  0.33333333       0.074
 
 position of ions in fractional coordinates (direct lattice) 
   0.20573983  0.24994474  0.21529415
   0.68824844  0.24987181  0.24253656
   0.18824844  0.74987181  0.24253656
   0.70573983  0.74994474  0.21529415
   0.20573983  0.24994474  0.71529415
   0.68824844  0.24987181  0.74253656
   0.18824844  0.74987181  0.74253656
   0.70573983  0.74994474  0.71529415
   0.30694395  0.25003131  0.27465476
   0.80213049  0.24997597  0.27311384
   0.30213049  0.74997597  0.27311384
   0.80694395  0.75003131  0.27465476
   0.30694395  0.25003131  0.77465476
   0.80213049  0.24997597  0.77311384
   0.30213049  0.74997597  0.77311384
   0.80694395  0.75003131  0.77465476
   0.22565376  0.24981994  0.13009495
   0.68449658  0.24982226  0.15568230
   0.18449658  0.74982226  0.15568230
   0.72565376  0.74981994  0.13009495
   0.22565376  0.24981994  0.63009495
   0.68449658  0.24982226  0.65568230
   0.18449658  0.74982226  0.65568230
   0.72565376  0.74981994  0.63009495
   0.15980416  0.32248824  0.23643051
   0.64887145  0.32221613  0.27460013
   0.14887145  0.82221613  0.27460013
   0.65980416  0.82248824  0.23643051
   0.15980416  0.32248824  0.73643051
   0.64887145  0.32221613  0.77460013
   0.14887145  0.82221613  0.77460013
   0.65980416  0.82248824  0.73643051
   0.15985367  0.17745519  0.23663038
   0.64903200  0.17749696  0.27467103
   0.14903200  0.67749696  0.27467103
   0.65985367  0.67745519  0.23663038
   0.15985367  0.17745519  0.73663038
   0.64903200  0.17749696  0.77467103
   0.14903200  0.67749696  0.77467103
   0.65985367  0.67745519  0.73663038
   0.35331049  0.31816596  0.25725915
   0.84295866  0.31758261  0.24425383
   0.34295866  0.81758261  0.24425383
   0.85331049  0.81816596  0.25725915
   0.35331049  0.31816596  0.75725915
   0.84295866  0.31758261  0.74425383
   0.34295866  0.81758261  0.74425383
   0.85331049  0.81816596  0.75725915
   0.35332729  0.18182575  0.25746082
   0.84308331  0.18238402  0.24432098
   0.34308331  0.68238402  0.24432098
   0.85332729  0.68182575  0.25746082
   0.35332729  0.18182575  0.75746082
   0.84308331  0.18238402  0.74432098
   0.34308331  0.68238402  0.74432098
   0.85332729  0.68182575  0.75746082
   0.29334873  0.25016912  0.35599889
   0.81299142  0.25001792  0.35521960
   0.31299142  0.75001792  0.35521960
   0.79334873  0.75016912  0.35599889
   0.29334873  0.25016912  0.85599889
   0.81299142  0.25001792  0.85521960
   0.31299142  0.75001792  0.85521960
   0.79334873  0.75016912  0.85599889
   0.47244944  0.50141593  0.48880955
   0.97243411  0.49856366  0.48881335
   0.47243411  0.99856366  0.48881335
   0.97244944  0.00141593  0.48880955
   0.47244944  0.50141593  0.98880955
   0.97243411  0.49856366  0.98881335
   0.47243411  0.99856366  0.98881335
   0.97244944  0.00141593  0.98880955
   0.45476493  0.50075041  0.23756822
   0.95472242  0.49923169  0.23757726
   0.45472242  0.99923169  0.23757726
   0.95476493  0.00075041  0.23756822
   0.45476493  0.50075041  0.73756822
   0.95472242  0.49923169  0.73757726
   0.45472242  0.99923169  0.73757726
   0.95476493  0.00075041  0.73756822
   0.47710730  0.24997358  0.00666962
   0.92216358  0.24998444  0.01699482
   0.42216358  0.74998444  0.01699482
   0.97710730  0.74997358  0.00666962
   0.47710730  0.24997358  0.50666962
   0.92216358  0.24998444  0.51699482
   0.42216358  0.74998444  0.51699482
   0.97710730  0.74997358  0.50666962
   0.21617807  0.46720793  0.46123970
   0.71616481  0.53278694  0.46123971
   0.21616481  0.03278694  0.46123971
   0.71617807  0.96720793  0.46123970
   0.21617807  0.46720793  0.96123970
   0.71616481  0.53278694  0.96123971
   0.21616481  0.03278694  0.96123971
   0.71617807  0.96720793  0.96123970
 
 position of ions in cartesian coordinates  (Angst):
   2.61786949  3.11410951  2.77269150
   8.69009968  3.11412777  3.18664415
   2.40227878  9.34193886  3.11717154
   8.90688602  9.34383650  2.84141769
   2.68757484  3.11415403  9.14640181
   8.75980503  3.11417229  9.56035446
   2.47198414  9.34198338  9.49088186
   8.97659137  9.34388103  9.21512800
   3.89897295  3.11538707  3.54337237
  10.12663858  3.11564634  3.59216382
   3.83881768  9.34345742  3.52269122
  10.18798948  9.34511407  3.61209856
   3.96867830  3.11543160  9.91708269
  10.19634393  3.11569086  9.96587414
   3.90852303  9.34350195  9.89640153
  10.25769483  9.34515859  9.98580888
   2.85644596  3.11258530  1.68937363
   8.63080463  3.11349556  2.07895795
   2.34298373  9.34130665  2.00948534
   9.14546249  9.34231229  1.75809982
   2.92615131  3.11262982  8.06308394
   8.70050998  3.11354008  8.45266826
   2.41268908  9.34135117  8.38319566
   9.21516784  9.34235681  8.13181013
   2.04317750  4.01773675  3.03572320
   8.19941819  4.01528739  3.58987608
   1.91159730 10.24309848  3.52040347
   8.33219403 10.24746374  3.10444939
   2.11288285  4.01778127  9.40943351
   8.26912355  4.01533191  9.96358639
   1.98130265 10.24314300  9.89411379
   8.40189938 10.24750827  9.47815970
   2.04365458  2.21098206  3.03838615
   8.20127423  2.21244311  3.59091012
   1.91345334  8.44025419  3.52143752
   8.33267111  8.44070906  3.10711234
   2.11335994  2.21102659  9.41209646
   8.27097959  2.21248763  9.96462043
   1.98315869  8.44029871  9.89514783
   8.40237647  8.44075358  9.48082265
   4.47977369  3.96426433  3.32798020
  10.63618539  3.95793424  3.22986515
   4.34836449 10.18574532  3.16039255
  10.76879022 10.19399133  3.39670639
   4.54947905  3.96430886  9.70169052
  10.70589074  3.95797876  9.60357546
   4.41806984 10.18578985  9.53410286
  10.83849558 10.19403585  9.77041671
   4.47985008  2.26580114  3.33065501
  10.63760075  2.27369290  3.23083930
   4.34977985  8.50150399  3.16136670
  10.76886661  8.49552813  3.39938120
   4.54955544  2.26584566  9.70436532
  10.70730610  2.27373743  9.60454961
   4.41948520  8.50154851  9.53507701
  10.83857197  8.49557266  9.77309151
   3.73932841  3.11708512  4.57842127
  10.27468125  3.11619700  4.64030149
   3.98686035  9.34400809  4.57082889
  10.02834494  9.34681212  4.64714746
   3.80903377  3.11712965 10.95213159
  10.34438660  3.11624152 11.01401181
   4.05656571  9.34405261 10.94453920
  10.09805030  9.34685664 11.02085778
   6.01066463  6.24735670  6.29597857
  12.29888761  6.21278244  6.36512644
   6.01106671 12.44059353  6.29565384
  12.29848553  0.01954562  6.36545117
   6.08036998  6.24740122 12.66968888
  12.36859296  6.21282696 12.73883675
   6.08077207 12.44063805 12.66936415
  12.36819088  0.01959014 12.73916148
   5.75322281  6.23900979  3.09085626
  12.04110641  6.22104806  3.16006614
   5.75328551 12.44885914  3.09059353
  12.04104370  0.01119870  3.16032886
   5.82292816  6.23905431  9.46456657
  12.11081176  6.22109258  9.53377645
   5.82299087 12.44890366  9.46430385
  12.11074906  0.01124322  9.53403917
   6.00172968  3.11497013  0.15076950
  11.60056953  3.11595894  0.34389538
   5.31274863  9.34377003  0.27442278
  12.29074621  9.34469713  0.21949569
   6.07143503  3.11501465  6.52447982
  11.67027488  3.11600347  6.71760569
   5.38245398  9.34381455  6.64813309
  12.36045156  9.34474165  6.59320601
   2.78369680  5.82071586  5.90914324
   9.07202712  6.63862678  5.97819198
   2.78301059  0.40889978  5.90946579
   9.07271333 12.05044286  5.97786943
   2.85340215  5.82076038 12.28285356
   9.14173247  6.63867130 12.35190230
   2.85271594  0.40894430 12.28317611
   9.14241868 12.05048738 12.35157975
 


--------------------------------------------------------------------------------------------------------


 k-point  1 :   0.0000 0.0000 0.0000  plane waves:   84007
 k-point  2 :   0.3333-0.0000-0.0000  plane waves:   84003
 k-point  3 :   0.0000 0.3333-0.0000  plane waves:   83995
 k-point  4 :   0.3333 0.3333 0.0000  plane waves:   84018
 k-point  5 :  -0.3333 0.3333 0.0000  plane waves:   84019
 k-point  6 :   0.0000 0.0000 0.3333  plane waves:   83960
 k-point  7 :   0.3333 0.0000 0.3333  plane waves:   83937
 k-point  8 :  -0.3333 0.0000 0.3333  plane waves:   83982
 k-point  9 :   0.0000 0.3333 0.3333  plane waves:   83984
 k-point 10 :   0.3333 0.3333 0.3333  plane waves:   84012
 k-point 11 :  -0.3333 0.3333 0.3333  plane waves:   83970
 k-point 12 :   0.0000-0.3333 0.3333  plane waves:   83977
 k-point 13 :   0.3333-0.3333 0.3333  plane waves:   84013
 k-point 14 :  -0.3333-0.3333 0.3333  plane waves:   83973

 maximum and minimum number of plane-waves per node :     28039    27934

 maximum number of plane-waves:     84019
 maximum index in each direction: 
   IXMAX=   27   IYMAX=   27   IZMAX=   27
   IXMIN=  -27   IYMIN=  -27   IZMIN=  -27

 NGX is ok and might be reduce to 110
 WARNING: aliasing errors must be expected set NGY to 110 to avoid them
 NGZ is ok and might be reduce to 110
 aliasing errors are usually negligible using standard VASP settings
 and one can safely disregard these warnings

 parallel 3D FFT for wavefunctions:
    minimum data exchange during FFTs selected (reduces bandwidth)
 parallel 3D FFT for charge:
    minimum data exchange during FFTs selected (reduces bandwidth)


 total amount of memory used by VASP on root node   697522. kBytes
========================================================================

   base      :      30000. kBytes
   nonl-proj :     325712. kBytes
   fftplans  :      80881. kBytes
   grid      :      57435. kBytes
   one-center:        497. kBytes
   wavefun   :     202997. kBytes
 
     INWAV:  cpu time    0.0000: real time    0.0000
 Broyden mixing: mesh for mixing (old mesh)
   NGX = 55   NGY = 53   NGZ = 55
  (NGX  =224   NGY  =216   NGZ  =224)
  gives a total of 160325 points

 initial charge density was supplied:
 charge density of overlapping atoms calculated
 number of electron     400.0000000 magnetization 
 keeping initial charge density in first step


--------------------------------------------------------------------------------------------------------


 Maximum index for augmentation-charges        14972 (set IRDMAX)


--------------------------------------------------------------------------------------------------------


 First call to EWALD:  gamma=   0.141
 Maximum number of real-space cells 3x 3x 3
 Maximum number of reciprocal cells 3x 3x 3

 FEWALD executed in parallel
    FEWALD:  cpu time    0.0040: real time    0.0044


----------------------------------------- Iteration    1(   1)  ---------------------------------------


    POTLOK:  cpu time    0.4480: real time    0.4481
    SETDIJ:  cpu time    0.7520: real time    0.7536
     EDDAV:  cpu time  249.3676: real time  249.5265
       DOS:  cpu time    0.0000: real time    0.0005
    --------------------------------------------
      LOOP:  cpu time  250.5677: real time  250.7500

 eigenvalue-minimisations  :  7176
 total energy-change (2. order) : 0.3594775E+04  (-0.1894193E+05)
 number of electron     400.0000000 magnetization 
 augmentation part      400.0000000 magnetization 

 Free energy of the ion-electron system (eV)
  ---------------------------------------------------
  alpha Z        PSCENC =       370.05370877
  Ewald energy   TEWEN  =    -15569.67885133
  -Hartree energ DENC   =     -8089.50152466
  -exchange      EXHF   =         0.00000000
  -V(xc)+E(xc)   XCENC  =       389.37205256
  PAW double counting   =     20601.23165652   -19855.90553853
  entropy T*S    EENTRO =        -0.00000000
  eigenvalues    EBANDS =      1000.19650089
  atomic energy  EATOM  =     24749.00668030
  Solvation  Ediel_sol  =         0.00000000
  ---------------------------------------------------
  free energy    TOTEN  =      3594.77468452 eV

  energy without entropy =     3594.77468452  energy(sigma->0) =     3594.77468452


--------------------------------------------------------------------------------------------------------




----------------------------------------- Iteration    1(   2)  ---------------------------------------


     EDDAV:  cpu time  271.6010: real time  271.7807
       DOS:  cpu time    0.0000: real time    0.0004
    --------------------------------------------
      LOOP:  cpu time  271.6050: real time  271.7864

 eigenvalue-minimisations  :  8000
 total energy-change (2. order) :-0.3395499E+04  (-0.3202671E+04)
 number of electron     400.0000000 magnetization 
 augmentation part      400.0000000 magnetization 

 Free energy of the ion-electron system (eV)
  ---------------------------------------------------
  alpha Z        PSCENC =       370.05370877
  Ewald energy   TEWEN  =    -15569.67885133
  -Hartree energ DENC   =     -8089.50152466
  -exchange      EXHF   =         0.00000000
  -V(xc)+E(xc)   XCENC  =       389.37205256
  PAW double counting   =     20601.23165652   -19855.90553853
  entropy T*S    EENTRO =        -0.00000000
  eigenvalues    EBANDS =     -2395.30297822
  atomic energy  EATOM  =     24749.00668030
  Solvation  Ediel_sol  =         0.00000000
  ---------------------------------------------------
  free energy    TOTEN  =       199.27520540 eV

  energy without entropy =      199.27520540  energy(sigma->0) =      199.27520540


--------------------------------------------------------------------------------------------------------




----------------------------------------- Iteration    1(   3)  ---------------------------------------


     EDDAV:  cpu time  309.4833: real time  309.6864
       DOS:  cpu time    0.0000: real time    0.0004
    --------------------------------------------
      LOOP:  cpu time  309.4873: real time  309.7386

 eigenvalue-minimisations  :  9432
 total energy-change (2. order) :-0.5968210E+03  (-0.5876403E+03)
 number of electron     400.0000000 magnetization 
 augmentation part      400.0000000 magnetization 

 Free energy of the ion-electron system (eV)
  ---------------------------------------------------
  alpha Z        PSCENC =       370.05370877
  Ewald energy   TEWEN  =    -15569.67885133
  -Hartree energ DENC   =     -8089.50152466
  -exchange      EXHF   =         0.00000000
  -V(xc)+E(xc)   XCENC  =       389.37205256
  PAW double counting   =     20601.23165652   -19855.90553853
  entropy T*S    EENTRO =         0.00000000
  eigenvalues    EBANDS =     -2992.12400843
  atomic energy  EATOM  =     24749.00668030
  Solvation  Ediel_sol  =         0.00000000
  ---------------------------------------------------
  free energy    TOTEN  =      -397.54582480 eV

  energy without entropy =     -397.54582480  energy(sigma->0) =     -397.54582480


--------------------------------------------------------------------------------------------------------




----------------------------------------- Iteration    1(   4)  ---------------------------------------


     EDDAV:  cpu time  315.0517: real time  315.2551
       DOS:  cpu time    0.0000: real time    0.0003
    --------------------------------------------
      LOOP:  cpu time  315.0597: real time  315.2750

 eigenvalue-minimisations  :  9640
 total energy-change (2. order) :-0.4064783E+02  (-0.4047118E+02)
 number of electron     400.0000000 magnetization 
 augmentation part      400.0000000 magnetization 

 Free energy of the ion-electron system (eV)
  ---------------------------------------------------
  alpha Z        PSCENC =       370.05370877
  Ewald energy   TEWEN  =    -15569.67885133
  -Hartree energ DENC   =     -8089.50152466
  -exchange      EXHF   =         0.00000000
  -V(xc)+E(xc)   XCENC  =       389.37205256
  PAW double counting   =     20601.23165652   -19855.90553853
  entropy T*S    EENTRO =        -0.00000000
  eigenvalues    EBANDS =     -3032.77183931
  atomic energy  EATOM  =     24749.00668030
  Solvation  Ediel_sol  =         0.00000000
  ---------------------------------------------------
  free energy    TOTEN  =      -438.19365568 eV

  energy without entropy =     -438.19365568  energy(sigma->0) =     -438.19365568


--------------------------------------------------------------------------------------------------------




----------------------------------------- Iteration    1(   5)  ---------------------------------------


     EDDAV:  cpu time  319.5000: real time  319.7041
       DOS:  cpu time    0.0000: real time    0.0004
    CHARGE:  cpu time    9.2046: real time    9.2093
    MIXING:  cpu time    0.0120: real time    0.0131
    --------------------------------------------
      LOOP:  cpu time  328.7165: real time  328.9440

 eigenvalue-minimisations  :  9808
 total energy-change (2. order) :-0.1547523E+01  (-0.1545186E+01)
 number of electron     400.0000000 magnetization 
 augmentation part        7.5618272 magnetization 

 Broyden mixing:
  rms(total) = 0.29354E+01    rms(broyden)= 0.29353E+01
  rms(prec ) = 0.34843E+01
  weight for this iteration     100.00

 Free energy of the ion-electron system (eV)
  ---------------------------------------------------
  alpha Z        PSCENC =       370.05370877
  Ewald energy   TEWEN  =    -15569.67885133
  -Hartree energ DENC   =     -8089.50152466
  -exchange      EXHF   =         0.00000000
  -V(xc)+E(xc)   XCENC  =       389.37205256
  PAW double counting   =     20601.23165652   -19855.90553853
  entropy T*S    EENTRO =        -0.00000000
  eigenvalues    EBANDS =     -3034.31936254
  atomic energy  EATOM  =     24749.00668030
  Solvation  Ediel_sol  =         0.00000000
  ---------------------------------------------------
  free energy    TOTEN  =      -439.74117891 eV

  energy without entropy =     -439.74117891  energy(sigma->0) =     -439.74117891


--------------------------------------------------------------------------------------------------------




----------------------------------------- Iteration    1(   6)  ---------------------------------------


    POTLOK:  cpu time    0.4440: real time    0.4428
    SETDIJ:  cpu time    0.7600: real time    0.7601
     EDDAV:  cpu time  315.5357: real time  315.7389
       DOS:  cpu time    0.0000: real time    0.0007
    CHARGE:  cpu time    9.2126: real time    9.2195
    MIXING:  cpu time    0.0120: real time    0.0132
    --------------------------------------------
      LOOP:  cpu time  325.9644: real time  326.2306

 eigenvalue-minimisations  :  9688
 total energy-change (2. order) : 0.2025311E+02  (-0.4100825E+01)
 number of electron     400.0000000 magnetization 
 augmentation part        7.8702354 magnetization 

 Broyden mixing:
  rms(total) = 0.15514E+01    rms(broyden)= 0.15514E+01
  rms(prec ) = 0.17291E+01
  weight for this iteration     100.00

 eigenvalues of (default mixing * dielectric matrix)
  average eigenvalue GAMMA=   1.5463
  1.5463

 Free energy of the ion-electron system (eV)
  ---------------------------------------------------
  alpha Z        PSCENC =       370.05370877
  Ewald energy   TEWEN  =    -15569.67885133
  -Hartree energ DENC   =     -8258.73235739
  -exchange      EXHF   =         0.00000000
  -V(xc)+E(xc)   XCENC  =       403.42248471
  PAW double counting   =     23012.00579555   -22264.48900547
  entropy T*S    EENTRO =         0.00000000
  eigenvalues    EBANDS =     -2861.07652347
  atomic energy  EATOM  =     24749.00668030
  Solvation  Ediel_sol  =         0.00000000
  ---------------------------------------------------
  free energy    TOTEN  =      -419.48806833 eV

  energy without entropy =     -419.48806833  energy(sigma->0) =     -419.48806833


--------------------------------------------------------------------------------------------------------




----------------------------------------- Iteration    1(   7)  ---------------------------------------


    POTLOK:  cpu time    0.4440: real time    0.4428
    SETDIJ:  cpu time    0.7560: real time    0.7598
     EDDAV:  cpu time  329.8766: real time  330.0868
       DOS:  cpu time    0.0000: real time    0.0006
    CHARGE:  cpu time    9.2166: real time    9.2232
    MIXING:  cpu time    0.0120: real time    0.0134
    --------------------------------------------
      LOOP:  cpu time  340.3093: real time  340.5884

 eigenvalue-minimisations  : 10232
 total energy-change (2. order) : 0.2452729E+01  (-0.1449657E+01)
 number of electron     400.0000000 magnetization 
 augmentation part        7.9972198 magnetization 

 Broyden mixing:
  rms(total) = 0.77387E+00    rms(broyden)= 0.77385E+00
  rms(prec ) = 0.82627E+00
  weight for this iteration     100.00

 eigenvalues of (default mixing * dielectric matrix)
  average eigenvalue GAMMA=   1.9266
  1.4443  2.4089

 Free energy of the ion-electron system (eV)
  ---------------------------------------------------
  alpha Z        PSCENC =       370.05370877
  Ewald energy   TEWEN  =    -15569.67885133
  -Hartree energ DENC   =     -8345.41698330
  -exchange      EXHF   =         0.00000000
  -V(xc)+E(xc)   XCENC  =       412.82173193
  PAW double counting   =     26052.23107738   -25303.42891911
  entropy T*S    EENTRO =         0.00000000
  eigenvalues    EBANDS =     -2782.62378445
  atomic energy  EATOM  =     24749.00668030
  Solvation  Ediel_sol  =         0.00000000
  ---------------------------------------------------
  free energy    TOTEN  =      -417.03533981 eV

  energy without entropy =     -417.03533981  energy(sigma->0) =     -417.03533981


--------------------------------------------------------------------------------------------------------




----------------------------------------- Iteration    1(   8)  ---------------------------------------


    POTLOK:  cpu time    0.4400: real time    0.4425
    SETDIJ:  cpu time    0.7640: real time    0.7623
     EDDAV:  cpu time  286.8739: real time  287.0575
       DOS:  cpu time    0.0000: real time    0.0005
    CHARGE:  cpu time    9.2126: real time    9.2192
    MIXING:  cpu time    0.0160: real time    0.0135
    --------------------------------------------
      LOOP:  cpu time  297.3106: real time  297.5462

 eigenvalue-minimisations  :  8600
 total energy-change (2. order) : 0.1735076E+00  (-0.3070680E+00)
 number of electron     400.0000000 magnetization 
 augmentation part        7.9223182 magnetization 

 Broyden mixing:
  rms(total) = 0.18219E+00    rms(broyden)= 0.18218E+00
  rms(prec ) = 0.22136E+00
  weight for this iteration     100.00

 eigenvalues of (default mixing * dielectric matrix)
  average eigenvalue GAMMA=   1.6290
  2.3796  1.2537  1.2537

 Free energy of the ion-electron system (eV)
  ---------------------------------------------------
  alpha Z        PSCENC =       370.05370877
  Ewald energy   TEWEN  =    -15569.67885133
  -Hartree energ DENC   =     -8353.30984760
  -exchange      EXHF   =         0.00000000
  -V(xc)+E(xc)   XCENC  =       416.01612260
  PAW double counting   =     28453.57182567   -27705.73935978
  entropy T*S    EENTRO =        -0.00000000
  eigenvalues    EBANDS =     -2776.78211088
  atomic energy  EATOM  =     24749.00668030
  Solvation  Ediel_sol  =         0.00000000
  ---------------------------------------------------
  free energy    TOTEN  =      -416.86183224 eV

  energy without entropy =     -416.86183224  energy(sigma->0) =     -416.86183224


--------------------------------------------------------------------------------------------------------




----------------------------------------- Iteration    1(   9)  ---------------------------------------


    POTLOK:  cpu time    0.4400: real time    0.4416
    SETDIJ:  cpu time    0.7600: real time    0.7595
     EDDAV:  cpu time  306.4071: real time  306.6020
       DOS:  cpu time    0.0000: real time    0.0006
    CHARGE:  cpu time    9.2126: real time    9.2171
    MIXING:  cpu time    0.0120: real time    0.0137
    --------------------------------------------
      LOOP:  cpu time  316.8318: real time  317.0871

 eigenvalue-minimisations  :  9336
 total energy-change (2. order) : 0.7241282E-01  (-0.7412613E-01)
 number of electron     400.0000000 magnetization 
 augmentation part        7.9338512 magnetization 

 Broyden mixing:
  rms(total) = 0.72902E-01    rms(broyden)= 0.72895E-01
  rms(prec ) = 0.81956E-01
  weight for this iteration     100.00

 eigenvalues of (default mixing * dielectric matrix)
  average eigenvalue GAMMA=   1.5469
  2.3205  1.0817  1.5322  1.2531

 Free energy of the ion-electron system (eV)
  ---------------------------------------------------
  alpha Z        PSCENC =       370.05370877
  Ewald energy   TEWEN  =    -15569.67885133
  -Hartree energ DENC   =     -8371.05600688
  -exchange      EXHF   =         0.00000000
  -V(xc)+E(xc)   XCENC  =       417.06818200
  PAW double counting   =     28469.36328561   -27721.63339671
  entropy T*S    EENTRO =         0.00000000
  eigenvalues    EBANDS =     -2759.91302117
  atomic energy  EATOM  =     24749.00668030
  Solvation  Ediel_sol  =         0.00000000
  ---------------------------------------------------
  free energy    TOTEN  =      -416.78941942 eV

  energy without entropy =     -416.78941942  energy(sigma->0) =     -416.78941942


--------------------------------------------------------------------------------------------------------




----------------------------------------- Iteration    1(  10)  ---------------------------------------


    POTLOK:  cpu time    0.4400: real time    0.4437
    SETDIJ:  cpu time    0.7640: real time    0.7621
     EDDAV:  cpu time  298.0706: real time  298.2639
       DOS:  cpu time    0.0000: real time    0.0008
    CHARGE:  cpu time    9.2166: real time    9.2227
    MIXING:  cpu time    0.0120: real time    0.0141
    --------------------------------------------
      LOOP:  cpu time  308.5113: real time  308.7309

 eigenvalue-minimisations  :  9024
 total energy-change (2. order) :-0.1257380E-01  (-0.1173864E-01)
 number of electron     400.0000000 magnetization 
 augmentation part        7.9085601 magnetization 

 Broyden mixing:
  rms(total) = 0.48227E-01    rms(broyden)= 0.48224E-01
  rms(prec ) = 0.55753E-01
  weight for this iteration     100.00

 eigenvalues of (default mixing * dielectric matrix)
  average eigenvalue GAMMA=   1.4521
  2.3705  1.9422  1.0485  1.0485  0.8507

 Free energy of the ion-electron system (eV)
  ---------------------------------------------------
  alpha Z        PSCENC =       370.05370877
  Ewald energy   TEWEN  =    -15569.67885133
  -Hartree energ DENC   =     -8372.23078155
  -exchange      EXHF   =         0.00000000
  -V(xc)+E(xc)   XCENC  =       417.18497571
  PAW double counting   =     28509.55901358   -27762.09927072
  entropy T*S    EENTRO =         0.00000000
  eigenvalues    EBANDS =     -2758.59746799
  atomic energy  EATOM  =     24749.00668030
  Solvation  Ediel_sol  =         0.00000000
  ---------------------------------------------------
  free energy    TOTEN  =      -416.80199322 eV

  energy without entropy =     -416.80199322  energy(sigma->0) =     -416.80199322


--------------------------------------------------------------------------------------------------------




----------------------------------------- Iteration    1(  11)  ---------------------------------------


    POTLOK:  cpu time    0.4400: real time    0.4418
    SETDIJ:  cpu time    0.7560: real time    1.3815
     EDDAV:  cpu time  314.1636: real time  314.3643
       DOS:  cpu time    0.0000: real time    0.0005
    CHARGE:  cpu time    9.2126: real time    9.2211
    MIXING:  cpu time    0.0160: real time    0.0143
    --------------------------------------------
      LOOP:  cpu time  324.5923: real time  345.9449

 eigenvalue-minimisations  :  9640
 total energy-change (2. order) : 0.7088702E-03  (-0.1425517E-02)
 number of electron     400.0000000 magnetization 
 augmentation part        7.9099310 magnetization 

 Broyden mixing:
  rms(total) = 0.21351E-01    rms(broyden)= 0.21350E-01
  rms(prec ) = 0.25366E-01
  weight for this iteration     100.00

 eigenvalues of (default mixing * dielectric matrix)
  average eigenvalue GAMMA=   1.5222
  2.4393  1.9933  1.5353  1.0430  1.0611  1.0611

 Free energy of the ion-electron system (eV)
  ---------------------------------------------------
  alpha Z        PSCENC =       370.05370877
  Ewald energy   TEWEN  =    -15569.67885133
  -Hartree energ DENC   =     -8371.44194821
  -exchange      EXHF   =         0.00000000
  -V(xc)+E(xc)   XCENC  =       417.19744995
  PAW double counting   =     28544.14094264   -27796.75848478
  entropy T*S    EENTRO =         0.00000000
  eigenvalues    EBANDS =     -2759.32078168
  atomic energy  EATOM  =     24749.00668030
  Solvation  Ediel_sol  =         0.00000000
  ---------------------------------------------------
  free energy    TOTEN  =      -416.80128435 eV

  energy without entropy =     -416.80128435  energy(sigma->0) =     -416.80128435


--------------------------------------------------------------------------------------------------------




----------------------------------------- Iteration    1(  12)  ---------------------------------------


    POTLOK:  cpu time    0.4400: real time    0.4422
    SETDIJ:  cpu time    0.7600: real time    0.7617
     EDDAV:  cpu time  321.1921: real time  321.3980
       DOS:  cpu time    0.0000: real time    0.0006
    CHARGE:  cpu time    9.2126: real time    9.2196
    MIXING:  cpu time    0.0160: real time    0.0146
    --------------------------------------------
      LOOP:  cpu time  331.6247: real time  374.7569

 eigenvalue-minimisations  :  9904
 total energy-change (2. order) :-0.1395701E-02  (-0.1051107E-02)
 number of electron     400.0000000 magnetization 
 augmentation part        7.9214934 magnetization 

 Broyden mixing:
  rms(total) = 0.11075E-01    rms(broyden)= 0.11075E-01
  rms(prec ) = 0.13214E-01
  weight for this iteration     100.00

 eigenvalues of (default mixing * dielectric matrix)
  average eigenvalue GAMMA=   1.4657
  2.5941  2.3066  1.2967  1.2967  0.9039  0.9308  0.9308

 Free energy of the ion-electron system (eV)
  ---------------------------------------------------
  alpha Z        PSCENC =       370.05370877
  Ewald energy   TEWEN  =    -15569.67885133
  -Hartree energ DENC   =     -8371.81499412
  -exchange      EXHF   =         0.00000000
  -V(xc)+E(xc)   XCENC  =       417.25632721
  PAW double counting   =     28537.48722292   -27790.13744770
  entropy T*S    EENTRO =        -0.00000000
  eigenvalues    EBANDS =     -2758.97532609
  atomic energy  EATOM  =     24749.00668030
  Solvation  Ediel_sol  =         0.00000000
  ---------------------------------------------------
  free energy    TOTEN  =      -416.80268005 eV

  energy without entropy =     -416.80268005  energy(sigma->0) =     -416.80268005


--------------------------------------------------------------------------------------------------------




----------------------------------------- Iteration    1(  13)  ---------------------------------------


    POTLOK:  cpu time    0.4400: real time    0.4419
    SETDIJ:  cpu time    0.7600: real time    0.7615
     EDDAV:  cpu time  279.8935: real time  280.0703
       DOS:  cpu time    0.0000: real time    0.0005
    CHARGE:  cpu time    9.2286: real time    9.2355
    MIXING:  cpu time    0.0160: real time    0.0148
    --------------------------------------------
      LOOP:  cpu time  290.3421: real time  308.5445

 eigenvalue-minimisations  :  8336
 total energy-change (2. order) :-0.1526641E-03  (-0.1440750E-03)
 number of electron     400.0000000 magnetization 
 augmentation part        7.9200076 magnetization 

 Broyden mixing:
  rms(total) = 0.78501E-02    rms(broyden)= 0.78498E-02
  rms(prec ) = 0.89695E-02
  weight for this iteration     100.00

 eigenvalues of (default mixing * dielectric matrix)
  average eigenvalue GAMMA=   1.4420
  2.6360  2.3328  1.4846  1.2538  0.9437  0.9437  0.9705  0.9705

 Free energy of the ion-electron system (eV)
  ---------------------------------------------------
  alpha Z        PSCENC =       370.05370877
  Ewald energy   TEWEN  =    -15569.67885133
  -Hartree energ DENC   =     -8372.08977931
  -exchange      EXHF   =         0.00000000
  -V(xc)+E(xc)   XCENC  =       417.27979813
  PAW double counting   =     28537.08568734   -27789.74952529
  entropy T*S    EENTRO =        -0.00000000
  eigenvalues    EBANDS =     -2758.71055132
  atomic energy  EATOM  =     24749.00668030
  Solvation  Ediel_sol  =         0.00000000
  ---------------------------------------------------
  free energy    TOTEN  =      -416.80283272 eV

  energy without entropy =     -416.80283272  energy(sigma->0) =     -416.80283272


--------------------------------------------------------------------------------------------------------




----------------------------------------- Iteration    1(  14)  ---------------------------------------


    POTLOK:  cpu time    0.4440: real time    0.4426
    SETDIJ:  cpu time    0.7640: real time    0.7637
     EDDAV:  cpu time  287.4380: real time  287.6245
       DOS:  cpu time    0.0040: real time    0.0005
    CHARGE:  cpu time    9.2206: real time    9.2268
    MIXING:  cpu time    0.0120: real time    0.0152
    --------------------------------------------
      LOOP:  cpu time  297.8826: real time  316.4960

 eigenvalue-minimisations  :  8624
 total energy-change (2. order) :-0.5070943E-04  (-0.2867141E-04)
 number of electron     400.0000000 magnetization 
 augmentation part        7.9201979 magnetization 

 Broyden mixing:
  rms(total) = 0.38386E-02    rms(broyden)= 0.38385E-02
  rms(prec ) = 0.44452E-02
  weight for this iteration     100.00

 eigenvalues of (default mixing * dielectric matrix)
  average eigenvalue GAMMA=   1.5366
  2.7414  2.7414  1.9668  1.0435  1.0435  1.2732  0.9170  1.0513  1.0513

 Free energy of the ion-electron system (eV)
  ---------------------------------------------------
  alpha Z        PSCENC =       370.05370877
  Ewald energy   TEWEN  =    -15569.67885133
  -Hartree energ DENC   =     -8372.40774066
  -exchange      EXHF   =         0.00000000
  -V(xc)+E(xc)   XCENC  =       417.30134135
  PAW double counting   =     28532.69420886   -27785.34579094
  entropy T*S    EENTRO =        -0.00000000
  eigenvalues    EBANDS =     -2758.42643977
  atomic energy  EATOM  =     24749.00668030
  Solvation  Ediel_sol  =         0.00000000
  ---------------------------------------------------
  free energy    TOTEN  =      -416.80288343 eV

  energy without entropy =     -416.80288343  energy(sigma->0) =     -416.80288343


--------------------------------------------------------------------------------------------------------




----------------------------------------- Iteration    1(  15)  ---------------------------------------


    POTLOK:  cpu time    0.4400: real time    0.4420
    SETDIJ:  cpu time    0.7600: real time    0.7589
     EDDAV:  cpu time  275.6092: real time  275.7862
       DOS:  cpu time    0.0000: real time    0.0005
    CHARGE:  cpu time    9.2246: real time    9.2306
    MIXING:  cpu time    0.0160: real time    0.0155
    --------------------------------------------
      LOOP:  cpu time  286.0539: real time  304.7193

 eigenvalue-minimisations  :  8176
 total energy-change (2. order) :-0.4456638E-04  (-0.2218777E-04)
 number of electron     400.0000000 magnetization 
 augmentation part        7.9198437 magnetization 

 Broyden mixing:
  rms(total) = 0.14735E-02    rms(broyden)= 0.14732E-02
  rms(prec ) = 0.16752E-02
  weight for this iteration     100.00

 eigenvalues of (default mixing * dielectric matrix)
  average eigenvalue GAMMA=   1.4900
  2.9787  2.4444  2.0868  1.4937  1.0128  1.0128  1.0533  1.0533  0.8819  0.8819

 Free energy of the ion-electron system (eV)
  ---------------------------------------------------
  alpha Z        PSCENC =       370.05370877
  Ewald energy   TEWEN  =    -15569.67885133
  -Hartree energ DENC   =     -8372.74286709
  -exchange      EXHF   =         0.00000000
  -V(xc)+E(xc)   XCENC  =       417.32127804
  PAW double counting   =     28525.93814028   -27778.57153713
  entropy T*S    EENTRO =         0.00000000
  eigenvalues    EBANDS =     -2758.12947984
  atomic energy  EATOM  =     24749.00668030
  Solvation  Ediel_sol  =         0.00000000
  ---------------------------------------------------
  free energy    TOTEN  =      -416.80292799 eV

  energy without entropy =     -416.80292799  energy(sigma->0) =     -416.80292799


--------------------------------------------------------------------------------------------------------




----------------------------------------- Iteration    1(  16)  ---------------------------------------


    POTLOK:  cpu time    0.4400: real time    0.4427
    SETDIJ:  cpu time    0.7640: real time    0.7639
     EDDAV:  cpu time  325.1443: real time  325.3535
       DOS:  cpu time    0.0000: real time    0.0005
    CHARGE:  cpu time    9.2246: real time    9.2270
    MIXING:  cpu time    0.0160: real time    0.0159
    --------------------------------------------
      LOOP:  cpu time  335.5930: real time  355.5715

 eigenvalue-minimisations  : 10056
 total energy-change (2. order) :-0.4589598E-05  (-0.2420491E-05)
 number of electron     400.0000000 magnetization 
 augmentation part        7.9197130 magnetization 

 Broyden mixing:
  rms(total) = 0.15185E-02    rms(broyden)= 0.15183E-02
  rms(prec ) = 0.16914E-02
  weight for this iteration     100.00

 eigenvalues of (default mixing * dielectric matrix)
  average eigenvalue GAMMA=   1.4828
  3.0847  2.4362  1.8750  1.8750  1.1125  1.1125  1.2908  0.9832  0.9832  0.7790
  0.7790

 Free energy of the ion-electron system (eV)
  ---------------------------------------------------
  alpha Z        PSCENC =       370.05370877
  Ewald energy   TEWEN  =    -15569.67885133
  -Hartree energ DENC   =     -8372.76147070
  -exchange      EXHF   =         0.00000000
  -V(xc)+E(xc)   XCENC  =       417.32408498
  PAW double counting   =     28527.36389930   -27779.99507999
  entropy T*S    EENTRO =         0.00000000
  eigenvalues    EBANDS =     -2758.11590391
  atomic energy  EATOM  =     24749.00668030
  Solvation  Ediel_sol  =         0.00000000
  ---------------------------------------------------
[...]
   0.998E+01 0.288E-01 0.506E+02   -.104E+02 -.321E-01 -.558E+02   0.446E+00 0.328E-02 0.556E+01   -.273E-05 -.219E-06 -.531E-05
   0.129E+00 0.634E-01 0.502E+02   0.868E+00 -.709E-01 -.553E+02   -.106E+01 0.779E-02 0.549E+01   -.177E-05 -.141E-06 -.703E-05
   0.331E+02 -.390E+02 -.652E+01   -.361E+02 0.436E+02 0.776E+01   0.304E+01 -.461E+01 -.126E+01   -.857E-05 0.491E-05 0.160E-05
   0.268E+02 -.391E+02 -.136E+02   -.294E+02 0.436E+02 0.156E+02   0.265E+01 -.459E+01 -.201E+01   -.457E-05 0.250E-05 0.757E-06
   0.268E+02 -.391E+02 -.136E+02   -.294E+02 0.436E+02 0.156E+02   0.265E+01 -.459E+01 -.201E+01   -.470E-05 0.266E-05 0.767E-06
   0.331E+02 -.390E+02 -.652E+01   -.361E+02 0.436E+02 0.776E+01   0.304E+01 -.461E+01 -.126E+01   -.833E-05 0.504E-05 0.167E-05
   0.331E+02 -.390E+02 -.652E+01   -.361E+02 0.436E+02 0.776E+01   0.304E+01 -.461E+01 -.126E+01   -.844E-05 0.526E-05 0.125E-05
   0.268E+02 -.391E+02 -.136E+02   -.294E+02 0.436E+02 0.156E+02   0.265E+01 -.459E+01 -.201E+01   -.503E-05 0.312E-05 0.488E-06
   0.268E+02 -.391E+02 -.136E+02   -.294E+02 0.436E+02 0.156E+02   0.265E+01 -.459E+01 -.201E+01   -.462E-05 0.238E-05 0.493E-06
   0.331E+02 -.390E+02 -.652E+01   -.361E+02 0.436E+02 0.776E+01   0.304E+01 -.461E+01 -.126E+01   -.825E-05 0.450E-05 0.118E-05
   0.331E+02 0.390E+02 -.663E+01   -.361E+02 -.436E+02 0.789E+01   0.304E+01 0.460E+01 -.127E+01   -.837E-05 -.513E-05 0.157E-05
   0.267E+02 0.391E+02 -.137E+02   -.293E+02 -.437E+02 0.156E+02   0.264E+01 0.459E+01 -.202E+01   -.470E-05 -.292E-05 0.733E-06
   0.267E+02 0.391E+02 -.137E+02   -.293E+02 -.437E+02 0.156E+02   0.264E+01 0.459E+01 -.202E+01   -.490E-05 -.253E-05 0.836E-06
   0.331E+02 0.390E+02 -.663E+01   -.361E+02 -.436E+02 0.789E+01   0.304E+01 0.460E+01 -.127E+01   -.818E-05 -.461E-05 0.162E-05
   0.331E+02 0.390E+02 -.663E+01   -.361E+02 -.436E+02 0.789E+01   0.304E+01 0.460E+01 -.127E+01   -.841E-05 -.486E-05 0.136E-05
   0.267E+02 0.391E+02 -.137E+02   -.293E+02 -.437E+02 0.156E+02   0.264E+01 0.459E+01 -.202E+01   -.467E-05 -.241E-05 0.650E-06
   0.267E+02 0.391E+02 -.137E+02   -.293E+02 -.437E+02 0.156E+02   0.264E+01 0.459E+01 -.202E+01   -.465E-05 -.276E-05 0.316E-06
   0.331E+02 0.390E+02 -.663E+01   -.361E+02 -.436E+02 0.789E+01   0.304E+01 0.460E+01 -.127E+01   -.857E-05 -.515E-05 0.119E-05
   -.354E+02 -.474E+02 0.131E+02   0.390E+02 0.527E+02 -.144E+02   -.373E+01 -.545E+01 0.137E+01   0.115E-04 0.108E-04 -.343E-07
   -.308E+02 -.485E+02 0.212E+02   0.340E+02 0.539E+02 -.235E+02   -.332E+01 -.545E+01 0.235E+01   0.101E-04 0.102E-04 -.399E-05
   -.308E+02 -.485E+02 0.212E+02   0.340E+02 0.539E+02 -.235E+02   -.332E+01 -.545E+01 0.235E+01   0.981E-05 0.996E-05 -.433E-05
   -.354E+02 -.474E+02 0.131E+02   0.390E+02 0.527E+02 -.144E+02   -.373E+01 -.545E+01 0.137E+01   0.117E-04 0.111E-04 0.276E-06
   -.354E+02 -.474E+02 0.131E+02   0.390E+02 0.527E+02 -.144E+02   -.373E+01 -.545E+01 0.137E+01   0.121E-04 0.122E-04 -.236E-06
   -.308E+02 -.485E+02 0.212E+02   0.340E+02 0.539E+02 -.235E+02   -.332E+01 -.545E+01 0.235E+01   0.101E-04 0.106E-04 -.450E-05
   -.308E+02 -.485E+02 0.212E+02   0.340E+02 0.539E+02 -.235E+02   -.332E+01 -.545E+01 0.235E+01   0.953E-05 0.893E-05 -.431E-05
   -.354E+02 -.474E+02 0.131E+02   0.390E+02 0.527E+02 -.144E+02   -.373E+01 -.545E+01 0.137E+01   0.117E-04 0.109E-04 -.419E-06
   -.354E+02 0.474E+02 0.129E+02   0.390E+02 -.528E+02 -.143E+02   -.373E+01 0.545E+01 0.135E+01   0.117E-04 -.117E-04 -.676E-07
   -.309E+02 0.485E+02 0.212E+02   0.341E+02 -.538E+02 -.235E+02   -.333E+01 0.545E+01 0.235E+01   0.994E-05 -.101E-04 -.409E-05
   -.309E+02 0.485E+02 0.212E+02   0.341E+02 -.538E+02 -.235E+02   -.333E+01 0.545E+01 0.235E+01   0.959E-05 -.912E-05 -.428E-05
   -.354E+02 0.474E+02 0.129E+02   0.390E+02 -.528E+02 -.143E+02   -.373E+01 0.545E+01 0.135E+01   0.120E-04 -.112E-04 0.365E-06
   -.354E+02 0.474E+02 0.129E+02   0.390E+02 -.528E+02 -.143E+02   -.373E+01 0.545E+01 0.135E+01   0.114E-04 -.105E-04 -.271E-08
   -.309E+02 0.485E+02 0.212E+02   0.341E+02 -.538E+02 -.235E+02   -.333E+01 0.545E+01 0.235E+01   0.982E-05 -.977E-05 -.432E-05
   -.309E+02 0.485E+02 0.212E+02   0.341E+02 -.538E+02 -.235E+02   -.333E+01 0.545E+01 0.235E+01   0.102E-04 -.105E-04 -.437E-05
   -.354E+02 0.474E+02 0.129E+02   0.390E+02 -.528E+02 -.143E+02   -.373E+01 0.545E+01 0.135E+01   0.120E-04 -.117E-04 -.608E-06
   0.121E+02 -.925E-01 -.641E+02   -.131E+02 0.104E+00 0.706E+02   0.103E+01 -.112E-01 -.686E+01   0.132E-05 -.243E-06 0.140E-04
   -.518E+01 -.455E-01 -.592E+02   0.601E+01 0.491E-01 0.654E+02   -.936E+00 -.333E-02 -.647E+01   0.534E-05 0.656E-08 0.137E-04
   -.518E+01 -.455E-01 -.592E+02   0.601E+01 0.491E-01 0.654E+02   -.936E+00 -.333E-02 -.647E+01   0.542E-05 0.225E-06 0.141E-04
   0.121E+02 -.925E-01 -.641E+02   -.131E+02 0.104E+00 0.706E+02   0.103E+01 -.112E-01 -.686E+01   0.176E-05 0.157E-06 0.139E-04
   0.121E+02 -.925E-01 -.641E+02   -.131E+02 0.104E+00 0.706E+02   0.103E+01 -.112E-01 -.686E+01   0.150E-05 0.209E-06 0.142E-04
   -.518E+01 -.455E-01 -.592E+02   0.601E+01 0.491E-01 0.654E+02   -.936E+00 -.333E-02 -.647E+01   0.539E-05 0.988E-07 0.142E-04
   -.518E+01 -.455E-01 -.592E+02   0.601E+01 0.491E-01 0.654E+02   -.936E+00 -.333E-02 -.647E+01   0.587E-05 -.275E-06 0.147E-04
   0.121E+02 -.925E-01 -.641E+02   -.131E+02 0.104E+00 0.706E+02   0.103E+01 -.112E-01 -.686E+01   0.135E-05 -.148E-07 0.139E-04
   -.303E+02 -.112E+02 -.117E+02   0.293E+02 0.113E+02 0.114E+02   0.108E+01 -.744E-01 0.274E+00   0.176E-05 0.791E-05 -.677E-05
   -.303E+02 0.114E+02 -.117E+02   0.292E+02 -.115E+02 0.114E+02   0.108E+01 0.839E-01 0.272E+00   0.108E-05 -.810E-05 -.501E-05
   -.303E+02 0.114E+02 -.117E+02   0.292E+02 -.115E+02 0.114E+02   0.108E+01 0.839E-01 0.272E+00   0.114E-05 -.829E-05 -.341E-05
   -.303E+02 -.112E+02 -.117E+02   0.293E+02 0.113E+02 0.114E+02   0.108E+01 -.744E-01 0.274E+00   0.158E-05 0.786E-05 -.655E-05
   -.303E+02 -.112E+02 -.117E+02   0.293E+02 0.113E+02 0.114E+02   0.108E+01 -.744E-01 0.274E+00   0.170E-05 0.914E-05 -.615E-05
   -.303E+02 0.114E+02 -.117E+02   0.292E+02 -.115E+02 0.114E+02   0.108E+01 0.839E-01 0.272E+00   0.951E-06 -.110E-04 -.909E-05
   -.303E+02 0.114E+02 -.117E+02   0.292E+02 -.115E+02 0.114E+02   0.108E+01 0.839E-01 0.272E+00   0.153E-05 -.100E-04 -.791E-05
   -.303E+02 -.112E+02 -.117E+02   0.293E+02 0.113E+02 0.114E+02   0.108E+01 -.744E-01 0.274E+00   0.117E-05 0.111E-04 -.576E-05
   -.172E+02 -.588E+01 0.558E+01   0.174E+02 0.590E+01 -.552E+01   -.144E+00 -.163E-01 -.681E-01   0.713E-05 0.965E-05 0.386E-05
   -.172E+02 0.596E+01 0.559E+01   0.173E+02 -.598E+01 -.553E+01   -.143E+00 0.175E-01 -.678E-01   0.781E-05 -.787E-05 0.760E-05
   -.172E+02 0.596E+01 0.559E+01   0.173E+02 -.598E+01 -.553E+01   -.143E+00 0.175E-01 -.678E-01   0.669E-05 -.963E-05 0.303E-05
   -.172E+02 -.588E+01 0.558E+01   0.174E+02 0.590E+01 -.552E+01   -.144E+00 -.163E-01 -.681E-01   0.751E-05 0.785E-05 0.418E-05
   -.172E+02 -.588E+01 0.558E+01   0.174E+02 0.590E+01 -.552E+01   -.144E+00 -.163E-01 -.681E-01   0.744E-05 0.955E-05 0.194E-05
   -.172E+02 0.596E+01 0.559E+01   0.173E+02 -.598E+01 -.553E+01   -.143E+00 0.175E-01 -.678E-01   0.773E-05 -.767E-05 -.129E-05
   -.172E+02 0.596E+01 0.559E+01   0.173E+02 -.598E+01 -.553E+01   -.143E+00 0.175E-01 -.678E-01   0.736E-05 -.974E-05 0.279E-05
   -.172E+02 -.588E+01 0.558E+01   0.174E+02 0.590E+01 -.552E+01   -.144E+00 -.163E-01 -.681E-01   0.788E-05 0.771E-05 0.206E-05
   -.318E+02 -.453E-01 -.162E+02   0.320E+02 0.465E-01 0.167E+02   -.137E+00 -.944E-03 -.525E+00   0.199E-04 -.302E-06 -.270E-05
   0.389E+01 -.628E-01 -.161E+02   -.415E+01 0.640E-01 0.169E+02   0.281E+00 -.106E-02 -.764E+00   -.294E-05 -.166E-05 -.354E-05
   0.389E+01 -.628E-01 -.161E+02   -.415E+01 0.640E-01 0.169E+02   0.281E+00 -.106E-02 -.764E+00   -.383E-05 0.606E-06 -.393E-05
   -.318E+02 -.453E-01 -.162E+02   0.320E+02 0.465E-01 0.167E+02   -.137E+00 -.944E-03 -.525E+00   0.206E-04 0.181E-05 -.182E-05
   -.318E+02 -.453E-01 -.162E+02   0.320E+02 0.465E-01 0.167E+02   -.137E+00 -.944E-03 -.525E+00   0.200E-04 0.801E-06 -.398E-05
   0.389E+01 -.628E-01 -.161E+02   -.415E+01 0.640E-01 0.169E+02   0.281E+00 -.106E-02 -.764E+00   -.218E-05 0.192E-05 -.653E-05
   0.389E+01 -.628E-01 -.161E+02   -.415E+01 0.640E-01 0.169E+02   0.281E+00 -.106E-02 -.764E+00   -.311E-05 -.733E-06 -.558E-05
   -.318E+02 -.453E-01 -.162E+02   0.320E+02 0.465E-01 0.167E+02   -.137E+00 -.944E-03 -.525E+00   0.197E-04 -.192E-05 -.459E-05
   0.553E+01 0.534E+01 -.298E+01   -.501E+01 -.563E+01 0.261E+01   -.541E+00 0.303E+00 0.394E+00   -.456E-05 0.196E-04 0.593E-06
   0.552E+01 -.532E+01 -.294E+01   -.500E+01 0.562E+01 0.258E+01   -.541E+00 -.305E+00 0.395E+00   -.104E-05 -.173E-04 0.571E-06
   0.552E+01 -.532E+01 -.294E+01   -.500E+01 0.562E+01 0.258E+01   -.541E+00 -.305E+00 0.395E+00   -.310E-05 -.196E-04 -.160E-05
   0.553E+01 0.534E+01 -.298E+01   -.501E+01 -.563E+01 0.261E+01   -.541E+00 0.303E+00 0.394E+00   -.255E-05 0.171E-04 -.135E-05
   0.553E+01 0.534E+01 -.298E+01   -.501E+01 -.563E+01 0.261E+01   -.541E+00 0.303E+00 0.394E+00   -.472E-06 0.189E-04 -.129E-05
   0.552E+01 -.532E+01 -.294E+01   -.500E+01 0.562E+01 0.258E+01   -.541E+00 -.305E+00 0.395E+00   -.482E-05 -.178E-04 -.138E-05
   0.552E+01 -.532E+01 -.294E+01   -.500E+01 0.562E+01 0.258E+01   -.541E+00 -.305E+00 0.395E+00   -.238E-05 -.188E-04 0.186E-05
   0.553E+01 0.534E+01 -.298E+01   -.501E+01 -.563E+01 0.261E+01   -.541E+00 0.303E+00 0.394E+00   -.319E-05 0.177E-04 0.144E-05
 -----------------------------------------------------------------------------------------------
   -.543E+02 -.106E+00 -.216E+02   0.234E-12 0.112E-12 -.244E-12   0.543E+02 0.106E+00 0.216E+02   0.159E-03 -.152E-05 0.300E-05
 
 
 POSITION                                       TOTAL-FORCE (eV/Angst)
 -----------------------------------------------------------------------------------
      2.61787      3.11411      2.77269         0.249025     -0.000099     -0.049251
      8.69010      3.11413      3.18664         0.220781      0.000088     -0.116358
      2.40228      9.34194      3.11717         0.220781      0.000088     -0.116358
      8.90689      9.34384      2.84142         0.249025     -0.000099     -0.049251
      2.68757      3.11415      9.14640         0.249025     -0.000099     -0.049251
      8.75981      3.11417      9.56035         0.220781      0.000088     -0.116358
      2.47198      9.34198      9.49088         0.220781      0.000088     -0.116358
      8.97659      9.34388      9.21513         0.249025     -0.000099     -0.049251
      3.89897      3.11539      3.54337        -0.145065     -0.000767      0.047049
     10.12664      3.11565      3.59216        -0.112711     -0.000935      0.099078
      3.83882      9.34346      3.52269        -0.112711     -0.000935      0.099078
     10.18799      9.34511      3.61210        -0.145065     -0.000767      0.047049
      3.96868      3.11543      9.91708        -0.145065     -0.000767      0.047049
     10.19634      3.11569      9.96587        -0.112711     -0.000935      0.099078
      3.90852      9.34350      9.89640        -0.112711     -0.000935      0.099078
     10.25769      9.34516      9.98581        -0.145065     -0.000767      0.047049
      2.85645      3.11259      1.68937        -0.064524      0.000278      0.314596
      8.63080      3.11350      2.07896         0.030472     -0.000026      0.309567
      2.34298      9.34131      2.00949         0.030472     -0.000026      0.309567
      9.14546      9.34231      1.75810        -0.064524      0.000278      0.314596
      2.92615      3.11263      8.06308        -0.064524      0.000278      0.314596
      8.70051      3.11354      8.45267         0.030472     -0.000026      0.309567
      2.41269      9.34135      8.38320         0.030472     -0.000026      0.309567
      9.21517      9.34236      8.13181        -0.064524      0.000278      0.314596
      2.04318      4.01774      3.03572         0.096575     -0.058233     -0.016321
      8.19942      4.01529      3.58988         0.089863     -0.060851     -0.036764
      1.91160     10.24310      3.52040         0.089863     -0.060851     -0.036764
      8.33219     10.24746      3.10445         0.096575     -0.058233     -0.016321
      2.11288      4.01778      9.40943         0.096575     -0.058233     -0.016321
      8.26912      4.01533      9.96359         0.089863     -0.060851     -0.036764
      1.98130     10.24314      9.89411         0.089863     -0.060851     -0.036764
      8.40190     10.24751      9.47816         0.096575     -0.058233     -0.016321
      2.04365      2.21098      3.03839         0.095588      0.057855     -0.016956
      8.20127      2.21244      3.59091         0.088700      0.060649     -0.037142
      1.91345      8.44025      3.52144         0.088700      0.060649     -0.037142
      8.33267      8.44071      3.10711         0.095588      0.057855     -0.016956
      2.11336      2.21103      9.41210         0.095588      0.057855     -0.016956
      8.27098      2.21249      9.96462         0.088700      0.060649     -0.037142
      1.98316      8.44030      9.89515         0.088700      0.060649     -0.037142
      8.40238      8.44075      9.48082         0.095588      0.057855     -0.016956
      4.47977      3.96426      3.32798        -0.121020     -0.084914      0.017224
     10.63619      3.95793      3.22987        -0.111839     -0.080770      0.049077
      4.34836     10.18575      3.16039        -0.111839     -0.080770      0.049077
     10.76879     10.19399      3.39671        -0.121020     -0.084914      0.017224
      4.54948      3.96431      9.70169        -0.121020     -0.084914      0.017224
     10.70589      3.95798      9.60358        -0.111839     -0.080770      0.049077
      4.41807     10.18579      9.53410        -0.111839     -0.080770      0.049077
     10.83850     10.19404      9.77042        -0.121020     -0.084914      0.017224
      4.47985      2.26580      3.33066        -0.122171      0.086070      0.016206
     10.63760      2.27369      3.23084        -0.113242      0.081744      0.048558
      4.34978      8.50150      3.16137        -0.113242      0.081744      0.048558
     10.76887      8.49553      3.39938        -0.122171      0.086070      0.016206
      4.54956      2.26585      9.70437        -0.122171      0.086070      0.016206
     10.70731      2.27374      9.60455        -0.113242      0.081744      0.048558
      4.41949      8.50155      9.53508        -0.113242      0.081744      0.048558
     10.83857      8.49557      9.77309        -0.122171      0.086070      0.016206
      3.73933      3.11709      4.57842         0.008889     -0.000040     -0.312136
     10.27468      3.11620      4.64030        -0.107212      0.000325     -0.304026
      3.98686      9.34401      4.57083        -0.107212      0.000325     -0.304026
     10.02834      9.34681      4.64715         0.008889     -0.000040     -0.312136
      3.80903      3.11713     10.95213         0.008889     -0.000040     -0.312136
     10.34439      3.11624     11.01401        -0.107212      0.000325     -0.304026
      4.05657      9.34405     10.94454        -0.107212      0.000325     -0.304026
     10.09805      9.34686     11.02086         0.008889     -0.000040     -0.312136
      6.01066      6.24736      6.29598         0.003441      0.002069     -0.003326
     12.29889      6.21278      6.36513         0.003353     -0.002367     -0.003322
      6.01107     12.44059      6.29565         0.003353     -0.002367     -0.003322
     12.29849      0.01955      6.36545         0.003441      0.002069     -0.003326
      6.08037      6.24740     12.66969         0.003441      0.002069     -0.003326
     12.36859      6.21283     12.73884         0.003353     -0.002367     -0.003322
      6.08077     12.44064     12.66936         0.003353     -0.002367     -0.003322
     12.36819      0.01959     12.73916         0.003441      0.002069     -0.003326
      5.75322      6.23901      3.09086         0.005607      0.001621     -0.003112
     12.04111      6.22105      3.16007         0.005557     -0.001931     -0.003096
      5.75329     12.44886      3.09059         0.005557     -0.001931     -0.003096
     12.04104      0.01120      3.16033         0.005607      0.001621     -0.003112
      5.82293      6.23905      9.46457         0.005607      0.001621     -0.003112
     12.11081      6.22109      9.53378         0.005557     -0.001931     -0.003096
      5.82299     12.44890      9.46430         0.005557     -0.001931     -0.003096
     12.11075      0.01124      9.53404         0.005607      0.001621     -0.003112
      6.00173      3.11497      0.15077         0.023357      0.000225     -0.025127
     11.60057      3.11596      0.34390         0.016390      0.000216     -0.028400
      5.31275      9.34377      0.27442         0.016390      0.000216     -0.028400
     12.29075      9.34470      0.21950         0.023357      0.000225     -0.025127
      6.07144      3.11501      6.52448         0.023357      0.000225     -0.025127
     11.67027      3.11600      6.71761         0.016390      0.000216     -0.028400
      5.38245      9.34381      6.64813         0.016390      0.000216     -0.028400
     12.36045      9.34474      6.59321         0.023357      0.000225     -0.025127
      2.78370      5.82072      5.90914        -0.019911      0.004643      0.027046
      9.07203      6.63863      5.97819        -0.019903     -0.004850      0.026937
      2.78301      0.40890      5.90947        -0.019903     -0.004850      0.026937
      9.07271     12.05044      5.97787        -0.019911      0.004643      0.027046
      2.85340      5.82076     12.28285        -0.019911      0.004643      0.027046
      9.14173      6.63867     12.35190        -0.019903     -0.004850      0.026937
      2.85272      0.40894     12.28318        -0.019903     -0.004850      0.026937
      9.14242     12.05049     12.35158        -0.019911      0.004643      0.027046
 -----------------------------------------------------------------------------------
    total drift:                                0.002840     -0.000035     -0.001095


--------------------------------------------------------------------------------------------------------



  FREE ENERGIE OF THE ION-ELECTRON SYSTEM (eV)
  ---------------------------------------------------
  free  energy   TOTEN  =      -416.80293202 eV

  energy  without entropy=     -416.80293202  energy(sigma->0) =     -416.80293202
 


--------------------------------------------------------------------------------------------------------


    POTLOK:  cpu time    1.2161: real time    1.2176


--------------------------------------------------------------------------------------------------------


     LOOP+:  cpu time 7126.1094: real time 7404.2853
    4ORBIT:  cpu time    0.0000: real time    0.0000

 total amount of memory used by VASP on root node   697522. kBytes
========================================================================

   base      :      30000. kBytes
   nonl-proj :     325712. kBytes
   fftplans  :      80881. kBytes
   grid      :      57435. kBytes
   one-center:        497. kBytes
   wavefun   :     202997. kBytes
 
  
  
 General timing and accounting informations for this job:
 ========================================================
  
                  Total CPU time used (sec):     7175.096
                            User time (sec):     7173.108
                          System time (sec):        1.988
                         Elapsed time (sec):     7453.594
  
                   Maximum memory used (kb):      640548.
                   Average memory used (kb):           0.
  
                          Minor page faults:       284015
                          Major page faults:            0
                 Voluntary context switches:         2196
