   2   2   1   0
  0.3405476E+02  0.4583961E-09  0.4583961E-09  0.4583961E-09  0.5000000E-15
  1.000000000000000E-004
  CAR 
 Name                                    
     16.77371268    -11.60003730  301      1.87749394      1.00000000
    -11.600  0.0000E+00  0.0000E+00
    -11.505  0.0000E+00  0.0000E+00
    -11.411  0.0000E+00  0.0000E+00
    -11.316  0.0000E+00  0.0000E+00
    -11.222  0.0000E+00  0.0000E+00
    -11.127  0.0000E+00  0.0000E+00
    -11.033  0.0000E+00  0.0000E+00
    -10.938  0.0000E+00  0.0000E+00
    -10.843  0.0000E+00  0.0000E+00
    -10.749  0.0000E+00  0.0000E+00
    -10.654  0.0000E+00  0.0000E+00
    -10.560  0.0000E+00  0.0000E+00
    -10.465  0.0000E+00  0.0000E+00
    -10.371  0.0000E+00  0.0000E+00
    -10.276  0.9790E-01  0.9259E-02
    -10.181  0.8683E+00  0.9138E-01
    -10.087  0.5615E-01  0.1442E+00
     -9.992  0.3123E+01  0.5454E+00
     -9.898  0.4574E+01  0.9789E+00
     -9.803  0.7190E+01  0.1986E+01
     -9.708  0.0000E+00  0.2000E+01
     -9.614  0.0000E+00  0.2000E+01
     -9.519  0.0000E+00  0.2000E+01
     -9.425  0.0000E+00  0.2000E+01
     -9.330  0.0000E+00  0.2000E+01
     -9.236  0.0000E+00  0.2000E+01
     -9.141  0.0000E+00  0.2000E+01
     -9.046  0.0000E+00  0.2000E+01
     -8.952  0.0000E+00  0.2000E+01
     -8.857  0.0000E+00  0.2000E+01
     -8.763  0.0000E+00  0.2000E+01
     -8.668  0.0000E+00  0.2000E+01
     -8.574  0.0000E+00  0.2000E+01
     -8.479  0.0000E+00  0.2000E+01
     -8.384  0.0000E+00  0.2000E+01
     -8.290  0.0000E+00  0.2000E+01
     -8.195  0.0000E+00  0.2000E+01
     -8.101  0.0000E+00  0.2000E+01
     -8.006  0.0000E+00  0.2000E+01
     -7.911  0.0000E+00  0.2000E+01
     -7.817  0.0000E+00  0.2000E+01
     -7.722  0.2127E+01  0.2201E+01
     -7.628  0.3343E+02  0.5560E+01
     -7.533  0.5846E+01  0.6636E+01
     -7.439  0.3418E+02  0.1023E+02
     -7.344  0.2293E+01  0.1047E+02
     -7.249  0.7825E+00  0.1055E+02
     -7.155  0.5874E+00  0.1060E+02
     -7.060  0.4507E+01  0.1103E+02
     -6.966  0.2737E+01  0.1131E+02
     -6.871  0.2540E+01  0.1155E+02
     -6.776  0.1174E+01  0.1200E+02
     -6.682  0.0000E+00  0.1200E+02
     -6.587  0.0000E+00  0.1200E+02
     -6.493  0.0000E+00  0.1200E+02
     -6.398  0.0000E+00  0.1200E+02
     -6.304  0.0000E+00  0.1200E+02
     -6.209  0.0000E+00  0.1200E+02
     -6.114  0.0000E+00  0.1200E+02
     -6.020  0.0000E+00  0.1200E+02
     -5.925  0.0000E+00  0.1200E+02
     -5.831  0.0000E+00  0.1200E+02
     -5.736  0.0000E+00  0.1200E+02
     -5.642  0.0000E+00  0.1200E+02
     -5.547  0.0000E+00  0.1200E+02
     -5.452  0.0000E+00  0.1200E+02
     -5.358  0.0000E+00  0.1200E+02
     -5.263  0.0000E+00  0.1200E+02
     -5.169  0.0000E+00  0.1200E+02
     -5.074  0.0000E+00  0.1200E+02
     -4.979  0.0000E+00  0.1200E+02
     -4.885  0.0000E+00  0.1200E+02
     -4.790  0.0000E+00  0.1200E+02
     -4.696  0.0000E+00  0.1200E+02
     -4.601  0.0000E+00  0.1200E+02
     -4.507  0.0000E+00  0.1200E+02
     -4.412  0.0000E+00  0.1200E+02
     -4.317  0.0000E+00  0.1200E+02
     -4.223  0.0000E+00  0.1200E+02
     -4.128  0.0000E+00  0.1200E+02
     -4.034  0.0000E+00  0.1200E+02
     -3.939  0.0000E+00  0.1200E+02
     -3.845  0.0000E+00  0.1200E+02
     -3.750  0.0000E+00  0.1200E+02
     -3.655  0.0000E+00  0.1200E+02
     -3.561  0.0000E+00  0.1200E+02
     -3.466  0.0000E+00  0.1200E+02
     -3.372  0.0000E+00  0.1200E+02
     -3.277  0.0000E+00  0.1200E+02
     -3.182  0.0000E+00  0.1200E+02
     -3.088  0.0000E+00  0.1200E+02
     -2.993  0.0000E+00  0.1200E+02
     -2.899  0.3427E+00  0.1203E+02
     -2.804  0.3190E-06  0.1204E+02
     -2.710  0.2937E+00  0.1206E+02
     -2.615  0.3733E+01  0.1242E+02
     -2.520  0.3498E+01  0.1295E+02
     -2.426  0.1510E-10  0.1295E+02
     -2.331  0.2350E+01  0.1318E+02
     -2.237  0.5149E-11  0.1318E+02
     -2.142  0.2350E+01  0.1340E+02
     -2.048  0.0000E+00  0.1340E+02
     -1.953  0.7832E+00  0.1347E+02
     -1.858  0.1575E+00  0.1349E+02
     -1.764  0.0000E+00  0.1353E+02
     -1.669  0.0000E+00  0.1353E+02
     -1.575  0.0000E+00  0.1353E+02
     -1.480  0.1455E+00  0.1354E+02
     -1.385  0.0000E+00  0.1375E+02
     -1.291  0.0000E+00  0.1375E+02
     -1.196  0.0000E+00  0.1375E+02
     -1.102  0.0000E+00  0.1375E+02
     -1.007  0.9935E+00  0.1384E+02
     -0.913  0.1175E+01  0.1397E+02
     -0.818  0.0000E+00  0.1397E+02
     -0.723  0.6861E+00  0.1404E+02
     -0.629  0.0000E+00  0.1419E+02
     -0.534  0.1169E+01  0.1430E+02
     -0.440  0.2365E+01  0.1453E+02
     -0.345  0.3509E+01  0.1486E+02
     -0.251  0.0000E+00  0.1486E+02
     -0.156  0.5619E+00  0.1491E+02
     -0.061  0.2686E+00  0.1494E+02
      0.033  0.5148E-06  0.1514E+02
      0.128  0.7411E+01  0.1584E+02
      0.222  0.1936E+00  0.1595E+02
      0.317  0.0000E+00  0.1605E+02
      0.412  0.2752E+00  0.1607E+02
      0.506  0.2454E+01  0.1639E+02
      0.601  0.2087E-14  0.1649E+02
      0.695  0.4699E+01  0.1694E+02
      0.790  0.2350E+01  0.1716E+02
      0.884  0.0000E+00  0.1716E+02
      0.979  0.1197E+01  0.1727E+02
      1.074  0.7829E+00  0.1745E+02
      1.168  0.4388E-01  0.1746E+02
      1.263  0.1174E+01  0.1771E+02
      1.357  0.0000E+00  0.1771E+02
      1.452  0.1588E+00  0.1773E+02
      1.546  0.3644E-09  0.1782E+02
      1.641  0.1566E+01  0.1797E+02
      1.736  0.0000E+00  0.1797E+02
      1.830  0.1255E+00  0.1798E+02
      1.925  0.0000E+00  0.1800E+02
      2.019  0.0000E+00  0.1800E+02
      2.114  0.0000E+00  0.1800E+02
      2.209  0.0000E+00  0.1800E+02
      2.303  0.0000E+00  0.1800E+02
      2.398  0.0000E+00  0.1800E+02
      2.492  0.0000E+00  0.1800E+02
      2.587  0.0000E+00  0.1800E+02
      2.681  0.0000E+00  0.1800E+02
      2.776  0.0000E+00  0.1800E+02
      2.871  0.0000E+00  0.1800E+02
      2.965  0.0000E+00  0.1800E+02
      3.060  0.0000E+00  0.1800E+02
      3.154  0.0000E+00  0.1800E+02
      3.249  0.0000E+00  0.1800E+02
      3.343  0.2482E-06  0.1800E+02
      3.438  0.9790E-01  0.1801E+02
      3.533  0.0000E+00  0.1801E+02
      3.627  0.0000E+00  0.1801E+02
      3.722  0.0000E+00  0.1801E+02
      3.816  0.0000E+00  0.1801E+02
      3.911  0.0000E+00  0.1801E+02
      4.006  0.0000E+00  0.1801E+02
      4.100  0.0000E+00  0.1801E+02
      4.195  0.0000E+00  0.1801E+02
      4.289  0.0000E+00  0.1801E+02
      4.384  0.2174E-16  0.1801E+02
      4.478  0.1172E+01  0.1812E+02
      4.573  0.7445E+00  0.1819E+02
      4.668  0.0000E+00  0.1819E+02
      4.762  0.0000E+00  0.1819E+02
      4.857  0.0000E+00  0.1819E+02
      4.951  0.0000E+00  0.1819E+02
      5.046  0.1272E-14  0.1819E+02
      5.140  0.8805E+00  0.1828E+02
      5.235  0.0000E+00  0.1828E+02
      5.330  0.7115E+00  0.1835E+02
      5.424  0.3923E+01  0.1873E+02
      5.519  0.2195E+01  0.1912E+02
      5.613  0.0000E+00  0.1936E+02
      5.708  0.1175E+01  0.1947E+02
      5.803  0.5874E+00  0.1953E+02
      5.897  0.0000E+00  0.1953E+02
      5.992  0.0000E+00  0.1953E+02
      6.086  0.0000E+00  0.1953E+02
      6.181  0.0000E+00  0.1953E+02
      6.275  0.3447E-12  0.1953E+02
      6.370  0.6303E+01  0.2012E+02
      6.465  0.3506E+01  0.2047E+02
      6.559  0.0000E+00  0.2047E+02
      6.654  0.6368E-12  0.2047E+02
      6.748  0.2932E+01  0.2075E+02
      6.843  0.0000E+00  0.2092E+02
      6.937  0.0000E+00  0.2092E+02
      7.032  0.0000E+00  0.2092E+02
      7.127  0.0000E+00  0.2092E+02
      7.221  0.2457E-02  0.2092E+02
      7.316  0.2631E+01  0.2117E+02
      7.410  0.4058E+01  0.2155E+02
      7.505  0.0000E+00  0.2157E+02
      7.600  0.3383E+00  0.2161E+02
      7.694  0.1566E+01  0.2194E+02
      7.789  0.0000E+00  0.2194E+02
      7.883  0.3297E+00  0.2198E+02
      7.978  0.6258E+01  0.2261E+02
      8.072  0.0000E+00  0.2261E+02
      8.167  0.5489E-10  0.2261E+02
      8.262  0.1175E+01  0.2272E+02
      8.356  0.1175E+01  0.2283E+02
      8.451  0.4699E+01  0.2328E+02
      8.545  0.2139E+01  0.2348E+02
      8.640  0.5185E-11  0.2350E+02
      8.734  0.2350E+01  0.2372E+02
      8.829  0.0000E+00  0.2372E+02
      8.924  0.2341E+01  0.2394E+02
      9.018  0.1664E-01  0.2395E+02
      9.113  0.9055E-02  0.2402E+02
      9.207  0.2341E+01  0.2424E+02
      9.302  0.1500E-13  0.2424E+02
      9.397  0.2350E+01  0.2446E+02
      9.491  0.1074E+01  0.2456E+02
      9.586  0.0000E+00  0.2457E+02
      9.680  0.1716E+00  0.2459E+02
      9.775  0.2235E+01  0.2490E+02
      9.869  0.3268E+01  0.2522E+02
      9.964  0.0000E+00  0.2522E+02
     10.059  0.2339E+01  0.2544E+02
     10.153  0.5873E+00  0.2550E+02
     10.248  0.3734E-07  0.2550E+02
     10.342  0.3607E+01  0.2584E+02
     10.437  0.2085E+01  0.2604E+02
     10.531  0.1304E-15  0.2606E+02
     10.626  0.2350E+01  0.2629E+02
     10.721  0.1752E+01  0.2645E+02
     10.815  0.5696E-03  0.2651E+02
     10.910  0.3132E+01  0.2681E+02
     11.004  0.9722E-02  0.2681E+02
     11.099  0.2340E+01  0.2703E+02
     11.194  0.7842E-07  0.2703E+02
     11.288  0.3921E+01  0.2740E+02
     11.383  0.7780E+00  0.2747E+02
     11.477  0.0000E+00  0.2747E+02
     11.572  0.5352E-01  0.2748E+02
     11.666  0.2984E+00  0.2754E+02
     11.761  0.1566E+01  0.2788E+02
     11.856  0.2634E+01  0.2813E+02
     11.950  0.0000E+00  0.2813E+02
     12.045  0.2701E-06  0.2813E+02
     12.139  0.4725E+01  0.2858E+02
     12.234  0.7832E+00  0.2870E+02
     12.328  0.0000E+00  0.2870E+02
     12.423  0.1149E+00  0.2871E+02
     12.518  0.0000E+00  0.2876E+02
     12.612  0.1179E+01  0.2887E+02
     12.707  0.3782E+01  0.2934E+02
     12.801  0.0000E+00  0.2943E+02
     12.896  0.5116E-04  0.2943E+02
     12.991  0.2350E+01  0.2965E+02
     13.085  0.1624E-12  0.2965E+02
     13.180  0.5874E+00  0.2970E+02
     13.274  0.5482E+01  0.3022E+02
     13.369  0.2350E+01  0.3044E+02
     13.463  0.2350E+01  0.3067E+02
     13.558  0.0000E+00  0.3067E+02
     13.653  0.2350E+01  0.3089E+02
     13.747  0.2934E+00  0.3092E+02
     13.842  0.0000E+00  0.3092E+02
     13.936  0.0000E+00  0.3092E+02
     14.031  0.7102E-05  0.3092E+02
     14.125  0.1175E+01  0.3103E+02
     14.220  0.2350E+01  0.3125E+02
     14.315  0.9934E+00  0.3134E+02
     14.409  0.4569E-08  0.3136E+02
     14.504  0.4993E+01  0.3183E+02
     14.598  0.0000E+00  0.3183E+02
     14.693  0.0000E+00  0.3183E+02
     14.788  0.0000E+00  0.3183E+02
     14.882  0.0000E+00  0.3183E+02
     14.977  0.3020E-04  0.3183E+02
     15.071  0.5874E+00  0.3189E+02
     15.166  0.7972E+00  0.3196E+02
     15.260  0.0000E+00  0.3200E+02
     15.355  0.0000E+00  0.3200E+02
     15.450  0.0000E+00  0.3200E+02
     15.544  0.0000E+00  0.3200E+02
     15.639  0.0000E+00  0.3200E+02
     15.733  0.0000E+00  0.3200E+02
     15.828  0.0000E+00  0.3200E+02
     15.923  0.0000E+00  0.3200E+02
     16.017  0.0000E+00  0.3200E+02
     16.112  0.0000E+00  0.3200E+02
     16.206  0.0000E+00  0.3200E+02
     16.301  0.0000E+00  0.3200E+02
     16.395  0.0000E+00  0.3200E+02
     16.490  0.0000E+00  0.3200E+02
     16.585  0.0000E+00  0.3200E+02
     16.679  0.0000E+00  0.3200E+02
     16.774  0.0000E+00  0.3200E+02
     16.77371268    -11.60003730  301      1.87749394      1.00000000
    -11.600  0.0000E+00  0.0000E+00  0.0000E+00
    -11.505  0.0000E+00  0.0000E+00  0.0000E+00
    -11.411  0.0000E+00  0.0000E+00  0.0000E+00
    -11.316  0.0000E+00  0.0000E+00  0.0000E+00
    -11.222  0.0000E+00  0.0000E+00  0.0000E+00
    -11.127  0.0000E+00  0.0000E+00  0.0000E+00
    -11.033  0.0000E+00  0.0000E+00  0.0000E+00
    -10.938  0.0000E+00  0.0000E+00  0.0000E+00
    -10.843  0.0000E+00  0.0000E+00  0.0000E+00
    -10.749  0.0000E+00  0.0000E+00  0.0000E+00
    -10.654  0.0000E+00  0.0000E+00  0.0000E+00
    -10.560  0.0000E+00  0.0000E+00  0.0000E+00
    -10.465  0.0000E+00  0.0000E+00  0.0000E+00
    -10.371  0.0000E+00  0.0000E+00  0.0000E+00
    -10.276  0.6330E-02  0.1847E-14  0.1230E-12
    -10.181  0.4629E-01  0.2297E-02  0.2294E-01
    -10.087  0.2119E-02  0.3339E-03  0.3859E-02
     -9.992  0.9172E-01  0.2366E-01  0.2949E+00
     -9.898  0.7037E-01  0.4614E-01  0.6499E+00
     -9.803  0.2390E-01  0.8810E-01  0.1333E+01
     -9.708  0.0000E+00  0.0000E+00  0.0000E+00
     -9.614  0.0000E+00  0.0000E+00  0.0000E+00
     -9.519  0.0000E+00  0.0000E+00  0.0000E+00
     -9.425  0.0000E+00  0.0000E+00  0.0000E+00
     -9.330  0.0000E+00  0.0000E+00  0.0000E+00
     -9.236  0.0000E+00  0.0000E+00  0.0000E+00
     -9.141  0.0000E+00  0.0000E+00  0.0000E+00
     -9.046  0.0000E+00  0.0000E+00  0.0000E+00
     -8.952  0.0000E+00  0.0000E+00  0.0000E+00
     -8.857  0.0000E+00  0.0000E+00  0.0000E+00
     -8.763  0.0000E+00  0.0000E+00  0.0000E+00
     -8.668  0.0000E+00  0.0000E+00  0.0000E+00
     -8.574  0.0000E+00  0.0000E+00  0.0000E+00
     -8.479  0.0000E+00  0.0000E+00  0.0000E+00
     -8.384  0.0000E+00  0.0000E+00  0.0000E+00
     -8.290  0.0000E+00  0.0000E+00  0.0000E+00
     -8.195  0.0000E+00  0.0000E+00  0.0000E+00
     -8.101  0.0000E+00  0.0000E+00  0.0000E+00
     -8.006  0.0000E+00  0.0000E+00  0.0000E+00
     -7.911  0.0000E+00  0.0000E+00  0.0000E+00
     -7.817  0.0000E+00  0.0000E+00  0.0000E+00
     -7.722  0.4303E-07  0.6493E-03  0.1950E+01
     -7.628  0.9876E-02  0.1127E-01  0.3094E+02
     -7.533  0.3965E-02  0.2678E-03  0.5470E+01
     -7.439  0.1248E-01  0.6410E-03  0.3237E+02
     -7.344  0.2466E-01  0.1740E-02  0.1934E+01
     -7.249  0.8864E-02  0.7723E-03  0.6511E+00
     -7.155  0.6661E-02  0.1219E-02  0.4710E+00
     -7.060  0.4566E-01  0.1098E-01  0.3598E+01
     -6.966  0.2053E-01  0.7998E-02  0.2190E+01
     -6.871  0.1163E-01  0.1204E-01  0.1953E+01
     -6.776  0.1638E-12  0.6902E-02  0.8943E+00
     -6.682  0.0000E+00  0.0000E+00  0.0000E+00
     -6.587  0.0000E+00  0.0000E+00  0.0000E+00
     -6.493  0.0000E+00  0.0000E+00  0.0000E+00
     -6.398  0.0000E+00  0.0000E+00  0.0000E+00
     -6.304  0.0000E+00  0.0000E+00  0.0000E+00
     -6.209  0.0000E+00  0.0000E+00  0.0000E+00
     -6.114  0.0000E+00  0.0000E+00  0.0000E+00
     -6.020  0.0000E+00  0.0000E+00  0.0000E+00
     -5.925  0.0000E+00  0.0000E+00  0.0000E+00
     -5.831  0.0000E+00  0.0000E+00  0.0000E+00
     -5.736  0.0000E+00  0.0000E+00  0.0000E+00
     -5.642  0.0000E+00  0.0000E+00  0.0000E+00
     -5.547  0.0000E+00  0.0000E+00  0.0000E+00
     -5.452  0.0000E+00  0.0000E+00  0.0000E+00
     -5.358  0.0000E+00  0.0000E+00  0.0000E+00
     -5.263  0.0000E+00  0.0000E+00  0.0000E+00
     -5.169  0.0000E+00  0.0000E+00  0.0000E+00
     -5.074  0.0000E+00  0.0000E+00  0.0000E+00
     -4.979  0.0000E+00  0.0000E+00  0.0000E+00
     -4.885  0.0000E+00  0.0000E+00  0.0000E+00
     -4.790  0.0000E+00  0.0000E+00  0.0000E+00
     -4.696  0.0000E+00  0.0000E+00  0.0000E+00
     -4.601  0.0000E+00  0.0000E+00  0.0000E+00
     -4.507  0.0000E+00  0.0000E+00  0.0000E+00
     -4.412  0.0000E+00  0.0000E+00  0.0000E+00
     -4.317  0.0000E+00  0.0000E+00  0.0000E+00
     -4.223  0.0000E+00  0.0000E+00  0.0000E+00
     -4.128  0.0000E+00  0.0000E+00  0.0000E+00
     -4.034  0.0000E+00  0.0000E+00  0.0000E+00
     -3.939  0.0000E+00  0.0000E+00  0.0000E+00
     -3.845  0.0000E+00  0.0000E+00  0.0000E+00
     -3.750  0.0000E+00  0.0000E+00  0.0000E+00
     -3.655  0.0000E+00  0.0000E+00  0.0000E+00
     -3.561  0.0000E+00  0.0000E+00  0.0000E+00
     -3.466  0.0000E+00  0.0000E+00  0.0000E+00
     -3.372  0.0000E+00  0.0000E+00  0.0000E+00
     -3.277  0.0000E+00  0.0000E+00  0.0000E+00
     -3.182  0.0000E+00  0.0000E+00  0.0000E+00
     -3.088  0.0000E+00  0.0000E+00  0.0000E+00
     -2.993  0.0000E+00  0.0000E+00  0.0000E+00
     -2.899  0.5376E-01  0.9045E-02  0.1495E-04
     -2.804  0.7437E-07  0.7103E-21  0.7713E-08
     -2.710  0.6846E-01  0.1553E-09  0.7101E-02
     -2.615  0.7412E+00  0.5320E-01  0.3104E-01
     -2.520  0.7878E+00  0.1770E-01  0.6085E-01
     -2.426  0.2492E-11  0.3413E-12  0.2685E-12
     -2.331  0.3879E+00  0.5311E-01  0.4179E-01
     -2.237  0.1006E-11  0.6206E-13  0.1423E-12
     -2.142  0.4588E+00  0.2832E-01  0.6494E-01
     -2.048  0.0000E+00  0.0000E+00  0.0000E+00
     -1.953  0.1054E+00  0.2244E-01  0.2373E-01
     -1.858  0.3031E-01  0.1057E-02  0.7605E-02
     -1.764  0.0000E+00  0.0000E+00  0.0000E+00
     -1.669  0.0000E+00  0.0000E+00  0.0000E+00
     -1.575  0.0000E+00  0.0000E+00  0.0000E+00
     -1.480  0.2168E-01  0.3044E-02  0.6282E-02
     -1.385  0.0000E+00  0.0000E+00  0.0000E+00
     -1.291  0.0000E+00  0.0000E+00  0.0000E+00
     -1.196  0.0000E+00  0.0000E+00  0.0000E+00
     -1.102  0.0000E+00  0.0000E+00  0.0000E+00
     -1.007  0.1338E+00  0.2309E-01  0.4667E-01
     -0.913  0.5052E-02  0.8244E-01  0.2806E-01
     -0.818  0.0000E+00  0.0000E+00  0.0000E+00
     -0.723  0.1095E-01  0.4525E-01  0.1873E-01
     -0.629  0.0000E+00  0.0000E+00  0.0000E+00
     -0.534  0.2897E-02  0.7903E-01  0.3647E-01
     -0.440  0.1438E-01  0.1721E+00  0.5001E-01
     -0.345  0.3048E-01  0.2550E+00  0.7289E-01
     -0.251  0.0000E+00  0.0000E+00  0.0000E+00
     -0.156  0.3700E-14  0.4408E-01  0.8611E-02
     -0.061  0.7140E-02  0.1624E-01  0.9076E-02
      0.033  0.4987E-07  0.1442E-07  0.2710E-07
      0.128  0.2251E+00  0.4408E+00  0.2495E+00
      0.222  0.1165E-14  0.1405E-01  0.5282E-02
      0.317  0.0000E+00  0.0000E+00  0.0000E+00
      0.412  0.1976E-04  0.1953E-01  0.8260E-02
      0.506  0.1025E-01  0.1645E+00  0.8442E-01
      0.601  0.4071E-16  0.1163E-15  0.9006E-16
      0.695  0.4583E-01  0.2876E+00  0.1856E+00
      0.790  0.7828E-12  0.1489E+00  0.9489E-01
      0.884  0.0000E+00  0.0000E+00  0.0000E+00
      0.979  0.6632E-14  0.7210E-01  0.5181E-01
      1.074  0.8222E-14  0.4692E-01  0.3371E-01
      1.168  0.4648E-16  0.2381E-02  0.2156E-02
      1.263  0.1006E-13  0.6055E-01  0.6229E-01
      1.357  0.0000E+00  0.0000E+00  0.0000E+00
      1.452  0.8934E-15  0.7232E-02  0.9023E-02
      1.546  0.1235E-23  0.1426E-10  0.2280E-10
      1.641  0.5310E-14  0.6128E-01  0.9803E-01
      1.736  0.0000E+00  0.0000E+00  0.0000E+00
      1.830  0.4486E-15  0.3517E-02  0.8878E-02
      1.925  0.0000E+00  0.0000E+00  0.0000E+00
      2.019  0.0000E+00  0.0000E+00  0.0000E+00
      2.114  0.0000E+00  0.0000E+00  0.0000E+00
      2.209  0.0000E+00  0.0000E+00  0.0000E+00
      2.303  0.0000E+00  0.0000E+00  0.0000E+00
      2.398  0.0000E+00  0.0000E+00  0.0000E+00
      2.492  0.0000E+00  0.0000E+00  0.0000E+00
      2.587  0.0000E+00  0.0000E+00  0.0000E+00
      2.681  0.0000E+00  0.0000E+00  0.0000E+00
      2.776  0.0000E+00  0.0000E+00  0.0000E+00
      2.871  0.0000E+00  0.0000E+00  0.0000E+00
      2.965  0.0000E+00  0.0000E+00  0.0000E+00
      3.060  0.0000E+00  0.0000E+00  0.0000E+00
      3.154  0.0000E+00  0.0000E+00  0.0000E+00
      3.249  0.0000E+00  0.0000E+00  0.0000E+00
      3.343  0.7324E-07  0.4538E-20  0.1507E-19
      3.438  0.2888E-01  0.1790E-14  0.5943E-14
      3.533  0.0000E+00  0.0000E+00  0.0000E+00
      3.627  0.0000E+00  0.0000E+00  0.0000E+00
      3.722  0.0000E+00  0.0000E+00  0.0000E+00
      3.816  0.0000E+00  0.0000E+00  0.0000E+00
      3.911  0.0000E+00  0.0000E+00  0.0000E+00
      4.006  0.0000E+00  0.0000E+00  0.0000E+00
      4.100  0.0000E+00  0.0000E+00  0.0000E+00
      4.195  0.0000E+00  0.0000E+00  0.0000E+00
      4.289  0.0000E+00  0.0000E+00  0.0000E+00
      4.384  0.5386E-17  0.6291E-18  0.1857E-18
      4.478  0.2729E+00  0.3346E-01  0.5803E-02
      4.573  0.1779E+00  0.2768E-01  0.3578E-02
      4.668  0.0000E+00  0.0000E+00  0.0000E+00
      4.762  0.0000E+00  0.0000E+00  0.0000E+00
      4.857  0.0000E+00  0.0000E+00  0.0000E+00
      4.951  0.0000E+00  0.0000E+00  0.0000E+00
      5.046  0.1477E-27  0.1160E-15  0.4078E-16
      5.140  0.1250E+00  0.3207E-01  0.1585E-01
      5.235  0.0000E+00  0.0000E+00  0.0000E+00
      5.330  0.1118E+00  0.3088E-01  0.1866E-01
      5.424  0.5865E+00  0.1942E+00  0.7704E-01
      5.519  0.4689E+00  0.9469E-01  0.2077E-01
      5.613  0.0000E+00  0.0000E+00  0.0000E+00
      5.708  0.1572E+00  0.6506E-01  0.2882E-01
      5.803  0.6684E-01  0.2278E-01  0.1550E-01
      5.897  0.0000E+00  0.0000E+00  0.0000E+00
      5.992  0.0000E+00  0.0000E+00  0.0000E+00
      6.086  0.0000E+00  0.0000E+00  0.0000E+00
      6.181  0.0000E+00  0.0000E+00  0.0000E+00
      6.275  0.8667E-13  0.3462E-14  0.5362E-14
      6.370  0.8760E+00  0.2897E+00  0.1418E+00
      6.465  0.7386E+00  0.7866E-01  0.6910E-01
      6.559  0.0000E+00  0.0000E+00  0.0000E+00
      6.654  0.3537E-13  0.7595E-13  0.7170E-14
      6.748  0.1305E+00  0.3426E+00  0.4089E-01
      6.843  0.0000E+00  0.0000E+00  0.0000E+00
      6.937  0.0000E+00  0.0000E+00  0.0000E+00
      7.032  0.0000E+00  0.0000E+00  0.0000E+00
      7.127  0.0000E+00  0.0000E+00  0.0000E+00
      7.221  0.5403E-05  0.1656E-03  0.7830E-04
      7.316  0.5163E-02  0.2249E+00  0.7508E-01
      7.410  0.1600E+00  0.3868E+00  0.8965E-01
      7.505  0.0000E+00  0.0000E+00  0.0000E+00
      7.600  0.5275E-02  0.2843E-01  0.9487E-02
      7.694  0.1864E-12  0.3500E+00  0.9126E-02
      7.789  0.0000E+00  0.0000E+00  0.0000E+00
      7.883  0.2857E-03  0.4796E-01  0.9874E-02
      7.978  0.1429E+00  0.7630E+00  0.1212E+00
      8.072  0.0000E+00  0.0000E+00  0.0000E+00
      8.167  0.2172E-12  0.5997E-11  0.1027E-11
      8.262  0.4649E-02  0.1283E+00  0.2199E-01
      8.356  0.1686E-10  0.2422E+00  0.1226E-01
      8.451  0.7103E-03  0.5944E+00  0.1273E+00
      8.545  0.1225E+00  0.1983E+00  0.3183E-01
      8.640  0.3306E-24  0.7251E-12  0.1547E-12
      8.734  0.1498E-12  0.3286E+00  0.7008E-01
      8.829  0.0000E+00  0.0000E+00  0.0000E+00
      8.924  0.1162E-12  0.4014E+00  0.4866E-01
      9.018  0.6074E-03  0.8607E-03  0.2378E-03
      9.113  0.3593E-03  0.5310E-03  0.1963E-03
      9.207  0.9288E-01  0.1372E+00  0.5074E-01
      9.302  0.3694E-15  0.1147E-14  0.4207E-15
      9.397  0.5786E-01  0.1797E+00  0.6590E-01
      9.491  0.3393E-10  0.1395E+00  0.2482E-01
      9.586  0.0000E+00  0.0000E+00  0.0000E+00
      9.680  0.4033E-12  0.2529E-01  0.3347E-02
      9.775  0.7577E-01  0.1239E+00  0.7454E-01
      9.869  0.8754E-01  0.2180E+00  0.9055E-01
      9.964  0.0000E+00  0.0000E+00  0.0000E+00
     10.059  0.8661E-03  0.1993E+00  0.8762E-01
     10.153  0.3017E-01  0.2628E-02  0.1813E-01
     10.248  0.4598E-10  0.6199E-08  0.9589E-09
     10.342  0.2389E-01  0.6008E+00  0.8605E-01
     10.437  0.3392E-10  0.2106E+00  0.8708E-01
     10.531  0.1403E-26  0.1836E-16  0.3110E-17
     10.626  0.2528E-10  0.3308E+00  0.5603E-01
     10.721  0.2218E-01  0.1278E+00  0.6695E-01
     10.815  0.6052E-07  0.8657E-04  0.2078E-04
     10.910  0.7231E-01  0.3681E+00  0.9585E-01
     11.004  0.1441E-03  0.3439E-03  0.3699E-03
     11.099  0.3469E-01  0.8277E-01  0.8902E-01
     11.194  0.1321E-14  0.5817E-09  0.5569E-08
     11.288  0.5905E-03  0.1160E+00  0.2549E+00
     11.383  0.8801E-01  0.4161E-01  0.4293E-02
     11.477  0.0000E+00  0.0000E+00  0.0000E+00
     11.572  0.6622E-02  0.9306E-04  0.1473E-04
     11.666  0.2656E-02  0.2097E-01  0.8205E-02
     11.761  0.8739E-10  0.6619E-01  0.9030E-01
     11.856  0.2780E-01  0.1706E+00  0.1284E+00
     11.950  0.0000E+00  0.0000E+00  0.0000E+00
     12.045  0.7268E-08  0.2887E-07  0.4992E-08
     12.139  0.1258E+00  0.4852E+00  0.9320E-01
     12.234  0.2195E-09  0.1211E+00  0.2617E-01
     12.328  0.0000E+00  0.0000E+00  0.0000E+00
     12.423  0.5565E-08  0.2880E-07  0.9464E-02
     12.518  0.0000E+00  0.0000E+00  0.0000E+00
     12.612  0.2897E-03  0.3457E-01  0.6889E-01
     12.707  0.1657E+00  0.2925E+00  0.9523E-01
     12.801  0.0000E+00  0.0000E+00  0.0000E+00
     12.896  0.3108E-05  0.1892E-05  0.1104E-05
     12.991  0.1427E+00  0.8687E-01  0.5071E-01
     13.085  0.4509E-23  0.1469E-22  0.7607E-14
     13.180  0.1460E-09  0.1627E-06  0.2751E-01
     13.274  0.7080E-01  0.5015E+00  0.2046E+00
     13.369  0.1217E-04  0.2103E+00  0.6599E-01
     13.463  0.3324E-04  0.7705E-01  0.9641E-01
     13.558  0.0000E+00  0.0000E+00  0.0000E+00
     13.653  0.1456E-06  0.1844E+00  0.6567E-01
     13.747  0.3874E-10  0.7250E-05  0.5371E-05
     13.842  0.0000E+00  0.0000E+00  0.0000E+00
     13.936  0.0000E+00  0.0000E+00  0.0000E+00
     14.031  0.1240E-10  0.1024E-05  0.2508E-06
     14.125  0.2052E-05  0.1693E+00  0.4148E-01
     14.220  0.3842E-03  0.2348E+00  0.7184E-01
     14.315  0.6363E-02  0.1434E-01  0.5235E-01
     14.409  0.8820E-11  0.6326E-09  0.1380E-09
     14.504  0.6974E-01  0.4162E+00  0.1025E+00
     14.598  0.0000E+00  0.0000E+00  0.0000E+00
     14.693  0.0000E+00  0.0000E+00  0.0000E+00
     14.788  0.0000E+00  0.0000E+00  0.0000E+00
     14.882  0.0000E+00  0.0000E+00  0.0000E+00
     14.977  0.1836E-05  0.5249E-05  0.1705E-06
     15.071  0.3570E-01  0.1021E+00  0.3316E-02
     15.166  0.2088E-01  0.5559E-01  0.2146E-02
     15.260  0.0000E+00  0.0000E+00  0.0000E+00
     15.355  0.0000E+00  0.0000E+00  0.0000E+00
     15.450  0.0000E+00  0.0000E+00  0.0000E+00
     15.544  0.0000E+00  0.0000E+00  0.0000E+00
     15.639  0.0000E+00  0.0000E+00  0.0000E+00
     15.733  0.0000E+00  0.0000E+00  0.0000E+00
     15.828  0.0000E+00  0.0000E+00  0.0000E+00
     15.923  0.0000E+00  0.0000E+00  0.0000E+00
     16.017  0.0000E+00  0.0000E+00  0.0000E+00
     16.112  0.0000E+00  0.0000E+00  0.0000E+00
     16.206  0.0000E+00  0.0000E+00  0.0000E+00
     16.301  0.0000E+00  0.0000E+00  0.0000E+00
     16.395  0.0000E+00  0.0000E+00  0.0000E+00
     16.490  0.0000E+00  0.0000E+00  0.0000E+00
     16.585  0.0000E+00  0.0000E+00  0.0000E+00
     16.679  0.0000E+00  0.0000E+00  0.0000E+00
     16.774  0.0000E+00  0.0000E+00  0.0000E+00
     16.77371268    -11.60003730  301      1.87749394      1.00000000
    -11.600  0.0000E+00  0.0000E+00  0.0000E+00
    -11.505  0.0000E+00  0.0000E+00  0.0000E+00
    -11.411  0.0000E+00  0.0000E+00  0.0000E+00
    -11.316  0.0000E+00  0.0000E+00  0.0000E+00
    -11.222  0.0000E+00  0.0000E+00  0.0000E+00
    -11.127  0.0000E+00  0.0000E+00  0.0000E+00
    -11.033  0.0000E+00  0.0000E+00  0.0000E+00
    -10.938  0.0000E+00  0.0000E+00  0.0000E+00
    -10.843  0.0000E+00  0.0000E+00  0.0000E+00
    -10.749  0.0000E+00  0.0000E+00  0.0000E+00
    -10.654  0.0000E+00  0.0000E+00  0.0000E+00
    -10.560  0.0000E+00  0.0000E+00  0.0000E+00
    -10.465  0.0000E+00  0.0000E+00  0.0000E+00
    -10.371  0.0000E+00  0.0000E+00  0.0000E+00
    -10.276  0.5441E-01  0.1353E-13  0.4655E-14
    -10.181  0.4826E+00  0.1238E-03  0.4569E-06
    -10.087  0.3095E-01  0.1058E-04  0.8759E-07
     -9.992  0.1708E+01  0.5236E-03  0.6580E-05
     -9.898  0.2450E+01  0.3727E-03  0.1150E-04
     -9.803  0.3766E+01  0.1383E-03  0.1909E-04
     -9.708  0.0000E+00  0.0000E+00  0.0000E+00
     -9.614  0.0000E+00  0.0000E+00  0.0000E+00
     -9.519  0.0000E+00  0.0000E+00  0.0000E+00
     -9.425  0.0000E+00  0.0000E+00  0.0000E+00
     -9.330  0.0000E+00  0.0000E+00  0.0000E+00
     -9.236  0.0000E+00  0.0000E+00  0.0000E+00
     -9.141  0.0000E+00  0.0000E+00  0.0000E+00
     -9.046  0.0000E+00  0.0000E+00  0.0000E+00
     -8.952  0.0000E+00  0.0000E+00  0.0000E+00
     -8.857  0.0000E+00  0.0000E+00  0.0000E+00
     -8.763  0.0000E+00  0.0000E+00  0.0000E+00
     -8.668  0.0000E+00  0.0000E+00  0.0000E+00
     -8.574  0.0000E+00  0.0000E+00  0.0000E+00
     -8.479  0.0000E+00  0.0000E+00  0.0000E+00
     -8.384  0.0000E+00  0.0000E+00  0.0000E+00
     -8.290  0.0000E+00  0.0000E+00  0.0000E+00
     -8.195  0.0000E+00  0.0000E+00  0.0000E+00
     -8.101  0.0000E+00  0.0000E+00  0.0000E+00
     -8.006  0.0000E+00  0.0000E+00  0.0000E+00
     -7.911  0.0000E+00  0.0000E+00  0.0000E+00
     -7.817  0.0000E+00  0.0000E+00  0.0000E+00
     -7.722  0.3421E-08  0.3758E-01  0.1423E-02
     -7.628  0.1814E-01  0.4295E+00  0.2976E-01
     -7.533  0.3506E-02  0.2521E-01  0.4277E-02
     -7.439  0.3776E-01  0.2535E-01  0.1779E-01
     -7.344  0.1054E+00  0.2412E-01  0.1927E-02
     -7.249  0.4163E-01  0.8612E-02  0.5692E-03
     -7.155  0.4459E-01  0.5059E-02  0.5387E-03
     -7.060  0.4050E+00  0.3187E-01  0.2470E-02
     -6.966  0.2763E+00  0.7351E-02  0.1794E-02
     -6.871  0.3173E+00  0.7182E-02  0.1277E-02
     -6.776  0.1699E+00  0.3705E-04  0.3053E-03
     -6.682  0.0000E+00  0.0000E+00  0.0000E+00
     -6.587  0.0000E+00  0.0000E+00  0.0000E+00
     -6.493  0.0000E+00  0.0000E+00  0.0000E+00
     -6.398  0.0000E+00  0.0000E+00  0.0000E+00
     -6.304  0.0000E+00  0.0000E+00  0.0000E+00
     -6.209  0.0000E+00  0.0000E+00  0.0000E+00
     -6.114  0.0000E+00  0.0000E+00  0.0000E+00
     -6.020  0.0000E+00  0.0000E+00  0.0000E+00
     -5.925  0.0000E+00  0.0000E+00  0.0000E+00
     -5.831  0.0000E+00  0.0000E+00  0.0000E+00
     -5.736  0.0000E+00  0.0000E+00  0.0000E+00
     -5.642  0.0000E+00  0.0000E+00  0.0000E+00
     -5.547  0.0000E+00  0.0000E+00  0.0000E+00
     -5.452  0.0000E+00  0.0000E+00  0.0000E+00
     -5.358  0.0000E+00  0.0000E+00  0.0000E+00
     -5.263  0.0000E+00  0.0000E+00  0.0000E+00
     -5.169  0.0000E+00  0.0000E+00  0.0000E+00
     -5.074  0.0000E+00  0.0000E+00  0.0000E+00
     -4.979  0.0000E+00  0.0000E+00  0.0000E+00
     -4.885  0.0000E+00  0.0000E+00  0.0000E+00
     -4.790  0.0000E+00  0.0000E+00  0.0000E+00
     -4.696  0.0000E+00  0.0000E+00  0.0000E+00
     -4.601  0.0000E+00  0.0000E+00  0.0000E+00
     -4.507  0.0000E+00  0.0000E+00  0.0000E+00
     -4.412  0.0000E+00  0.0000E+00  0.0000E+00
     -4.317  0.0000E+00  0.0000E+00  0.0000E+00
     -4.223  0.0000E+00  0.0000E+00  0.0000E+00
     -4.128  0.0000E+00  0.0000E+00  0.0000E+00
     -4.034  0.0000E+00  0.0000E+00  0.0000E+00
     -3.939  0.0000E+00  0.0000E+00  0.0000E+00
     -3.845  0.0000E+00  0.0000E+00  0.0000E+00
     -3.750  0.0000E+00  0.0000E+00  0.0000E+00
     -3.655  0.0000E+00  0.0000E+00  0.0000E+00
     -3.561  0.0000E+00  0.0000E+00  0.0000E+00
     -3.466  0.0000E+00  0.0000E+00  0.0000E+00
     -3.372  0.0000E+00  0.0000E+00  0.0000E+00
     -3.277  0.0000E+00  0.0000E+00  0.0000E+00
     -3.182  0.0000E+00  0.0000E+00  0.0000E+00