    2    2    1    1
  0.3405476E+02  0.4583961E-09  0.4583961E-09  0.4583961E-09  0.5000000E-15
  1.000000000000000E-004
  CAR 
 Name                                    
     18    131     16
 
  0.0000000E+00  0.0000000E+00  0.0000000E+00  0.4629630E-02
    1      -10.310321
    2       -7.752600
    3       -7.752600
    4       -7.752600
    5       -7.489017
    6       -7.489017
    7        1.831501
    8        1.831501
    9        1.831501
   10        3.375728
   11        7.302950
   12        7.302950
   13        7.302951
   14       10.335277
   15       12.171874
   16       12.172020
 
  0.1666667E+00  0.0000000E+00  0.0000000E+00  0.3703704E-01
    1      -10.207423
    2       -7.734282
    3       -7.734282
    4       -7.650972
    5       -7.490196
    6       -7.490196
    7        0.067407
    8        1.590522
    9        1.590522
   10        4.459413
   11        7.407029
   12        7.664502
   13        7.664502
   14       11.231205
   15       11.231207
   16       11.305621
 
  0.3333333E+00  0.0000000E+00  0.0000000E+00  0.3703704E-01
    1      -10.011161
    2       -7.702302
    3       -7.702302
    4       -7.486940
    5       -7.486940
    6       -7.321822
    7       -1.982129
    8        1.181700
    9        1.181700
   10        4.561331
   11        7.942767
   12        7.942766
   13        9.032566
   14       10.852998
   15       11.694307
   16       11.694308
 
  0.5000000E+00  0.0000000E+00  0.0000000E+00  0.1851852E-01
    1       -9.920946
    2       -7.689494
    3       -7.689494
    4       -7.481603
    5       -7.481603
    6       -7.043988
    7       -2.906890
    8        1.002702
    9        1.002702
   10        4.442890
   11        7.884736
   12        7.884736
   13        9.809659
   14       11.579605
   15       13.248271
   16       13.248827
 
  0.1666667E+00  0.1666667E+00  0.0000000E+00  0.2777778E-01
    1      -10.173870
    2       -7.715709
    3       -7.715709
    4       -7.646341
    5       -7.494748
    6       -7.481859
    7        0.085621
    8        1.191621
    9        1.191621
   10        5.118583
   11        6.337544
   12        8.312274
   13        8.312275
   14        9.859640
   15       12.151344
   16       12.429136
 
  0.3333333E+00  0.1666667E+00  0.0000000E+00  0.1111111E+00
    1      -10.011672
    2       -7.689896
    3       -7.679944
    4       -7.529948
    5       -7.476644
    6       -7.357913
    7       -1.469186
    8        0.656946
    9        0.751532
   10        5.533039
   11        6.704755
   12        8.399458
   13        8.904736
   14       10.715977
   15       12.612235
   16       12.632441
 
  0.5000000E+00  0.1666667E+00  0.0000000E+00  0.1111111E+00
    1       -9.893100
    2       -7.674681
    3       -7.664346
    4       -7.504602
    5       -7.478586
    6       -7.009719
    7       -2.668480
    8        0.096857
    9        0.660411
   10        5.430639
   11        7.369404
   12        8.688859
   13        9.356462
   14       11.674505
   15       12.924872
   16       13.330830
 
 -0.3333333E+00  0.1666667E+00  0.0000000E+00  0.1111111E+00
    1       -9.921728
    2       -7.678444
    3       -7.675963
    4       -7.492814
    5       -7.491255
    6       -7.103505
    7       -2.377985
    8       -0.052866
    9        0.978824
   10        5.509217
   11        7.607047
   12        8.386682
   13        9.131642
   14       11.260827
   15       12.081819
   16       13.230137
 
 -0.1666667E+00  0.1666667E+00  0.0000000E+00  0.5555556E-01
    1      -10.074986
    2       -7.713519
    3       -7.698621
    4       -7.512595
    5       -7.498270
    6       -7.446087
    7       -1.014369
    8        0.515428
    9        1.459683
   10        5.350190
   11        7.351897
   12        7.921632
   13        8.212809
   14       10.431565
   15       11.838466
   16       12.712178
 
  0.3333333E+00  0.3333333E+00  0.0000000E+00  0.2777778E-01
    1       -9.921117
    2       -7.636323
    3       -7.636323
    4       -7.568259
    5       -7.467517
    6       -7.208865
    7       -1.854008
    8        0.229253
    9        0.229253
   10        5.325768
   11        5.763658
   12       10.126571
   13       10.410930
   14       10.410930
   15       13.136119
   16       15.004171
 
  0.5000000E+00  0.3333333E+00  0.0000000E+00  0.1111111E+00
    1       -9.837895
    2       -7.630942
    3       -7.615698
    4       -7.551166
    5       -7.468617
    6       -6.920395
    7       -2.536602
    8       -0.473794
    9        0.083993
   10        5.408024
   11        6.359414
   12        9.793035
   13       10.590024
   14       12.082861
   15       13.623983
   16       14.450874
 
 -0.3333333E+00  0.3333333E+00  0.0000000E+00  0.5555556E-01
    1       -9.838948
    2       -7.650184
    3       -7.634320
    4       -7.515808
    5       -7.484833
    6       -6.859817
    7       -2.561183
    8       -0.970712
    9        0.416745
   10        5.676594
   11        7.903627
   12        9.687724
   13        9.741913
   14       10.311370
   15       11.809689
   16       15.162587
 
  0.5000000E+00  0.5000000E+00  0.0000000E+00  0.1388889E-01
    1       -9.810709
    2       -7.593455
    3       -7.593455
    4       -7.584125
    5       -7.460299
    6       -6.859525
    7       -2.770681
    8       -0.168064
    9       -0.168064
   10        5.100746
   11        5.295164
   12       11.806299
   13       12.200743
   14       12.200843
   15       13.725472
   16       14.475325
 
  0.5000000E+00  0.3333333E+00  0.1666667E+00  0.1111111E+00
    1       -9.893256
    2       -7.658549
    3       -7.649611
    4       -7.527249
    5       -7.477419
    6       -7.070001
    7       -2.187738
    8       -0.376855
    9        0.431647
   10        6.327026
   11        6.753138
   12        7.957623
   13       10.286863
   14       11.023055
   15       13.214217
   16       14.466563
 
 -0.3333333E+00  0.3333333E+00  0.1666667E+00  0.1111111E+00
    1       -9.838952
    2       -7.649859
    3       -7.635738
    4       -7.513347
    5       -7.486290
    6       -6.859240
    7       -2.605488
    8       -0.719562
    9        0.126516
   10        6.444501
   11        7.242974
   12        8.535829
   13       10.040062
   14       10.839896
   15       13.400697
   16       14.175348
 
 -0.3333333E+00  0.5000000E+00  0.1666667E+00  0.5555556E-01
    1       -9.812303
    2       -7.623776
    3       -7.619088
    4       -7.536153
    5       -7.476972
    6       -6.798879
    7       -2.653360
    8       -0.552353
    9       -0.423936
   10        6.347262
   11        6.448445
   12        9.481443
   13        9.766095
   14       12.653376
   15       14.061859
   16       14.307457
 
  0.0000000E+00  0.0000000E+00  0.0000000E+00  0.0000000E+00
    1      -10.310321
    2       -7.752600
    3       -7.752600
    4       -7.752600
    5       -7.489017
    6       -7.489017
    7        1.831501
    8        1.831501
    9        1.831501
   10        3.375728
   11        7.302950
   12        7.302950
   13        7.302951
   14       10.335277
   15       12.171879
   16       12.172376
 
  0.2500000E-01  0.0000000E+00  0.2500000E-01  0.0000000E+00
    1      -10.306932
    2       -7.751707
    3       -7.751707
    4       -7.750266
    5       -7.489313
    6       -7.488839
    7        1.745928
    8        1.813491
    9        1.813491
   10        3.463805
   11        7.266856
   12        7.329253
   13        7.329254
   14       10.388652
   15       11.981873
   16       12.178229
 
  0.5000000E-01  0.0000000E+00  0.5000000E-01  0.0000000E+00
    1      -10.296811
    2       -7.749064
    3       -7.749064
    4       -7.743214
    5       -7.490178
    6       -7.488316
    7        1.531336
    8        1.760755
    9        1.760755
   10        3.685304
   11        7.166085
   12        7.406867
   13        7.406867
   14       10.539042
   15       11.601997
   16       12.195407
 
  0.7500000E-01  0.0000000E+00  0.7500000E-01  0.0000000E+00
    1      -10.280245
    2       -7.744704
    3       -7.744704
    4       -7.731353
    5       -7.491523
    6       -7.487456
    7        1.251507
    8        1.676857
    9        1.676857
   10        3.974617
   11        7.018196
   12        7.532211
   13        7.532212
   14       10.748089
   15       11.220004
   16       12.224517
 
  0.9999999E-01  0.0000000E+00  0.9999999E-01  0.0000000E+00
    1      -10.257727
    2       -7.738714
    3       -7.738714
    4       -7.714558
    5       -7.493140
    6       -7.486284
    7        0.943048
    8        1.566979
    9        1.566979
   10        4.291730
   11        6.842009
   12        7.700154
   13        7.700154
   14       10.703955
   15       11.167679
   16       12.265252
 
  0.1250000E+00  0.0000000E+00  0.1250000E+00  0.0000000E+00
    1      -10.229886
    2       -7.731210
    3       -7.731210
    4       -7.692773
    5       -7.494673
    6       -7.484828
    7        0.623137
    8        1.437010
    9        1.437010
   10        4.614122
   11        6.652795
   12        7.904868
   13        7.904868
   14       10.365807
   15       11.488759
   16       12.317409
 
  0.1500000E+00  0.0000000E+00  0.1500000E+00  0.0000000E+00
    1      -10.197512
    2       -7.722319
    3       -7.722319
    4       -7.666230
    5       -7.495411
    6       -7.483118
    7        0.300194
    8        1.292845
    9        1.292844
   10        4.925333
   11        6.461731
   12        8.140581
   13        8.140581
   14       10.044717
   15       11.874785
   16       12.380769
 
  0.1750000E+00  0.0000000E+00  0.1750000E+00  0.0000000E+00
    1      -10.161563
    2       -7.712226
    3       -7.712226
    4       -7.635978
    5       -7.493787
    6       -7.481200
    7       -0.021100
    8        1.140018
    9        1.140018
   10        5.208914
   11        6.277266
   12        8.401961
   13        8.401962
   14        9.778031
   15       12.293951
   16       12.455082
 
  0.2000000E+00  0.0000000E+00  0.2000000E+00  0.0000000E+00
    1      -10.123115
    2       -7.701148
    3       -7.701148
    4       -7.605185
    5       -7.486183
    6       -7.479126
    7       -0.337766
    8        0.983342
    9        0.983342
   10        5.444805
   11        6.107822
   12        8.684431
   13        8.684432
   14        9.584882
   15       12.539915
   16       12.735380
 
  0.2250000E+00  0.0000000E+00  0.2250000E+00  0.0000000E+00
    1      -10.083259
    2       -7.689326
    3       -7.689326
    4       -7.580562
    5       -7.476946
    6       -7.465575
    7       -0.647468
    8        0.827000
    9        0.826999
   10        5.603357
   11        5.969622
   12        8.984104
   13        8.984105
   14        9.482082
   15       12.634741
   16       13.190335
 
  0.2500000E+00  0.0000000E+00  0.2500000E+00  0.0000000E+00
    1      -10.043140
    2       -7.677016
    3       -7.677016
    4       -7.567621
    5       -7.474705
    6       -7.426351
    7       -0.948097
    8        0.674531
    9        0.674531
   10        5.634264
   11        5.902959
   12        9.297757
   13        9.297757
   14        9.481054
   15       12.738819
   16       13.649272
 
  0.2750000E+00  0.0000000E+00  0.2750000E+00  0.0000000E+00
    1      -10.003902
    2       -7.664504
    3       -7.664504
    4       -7.563795
    5       -7.472460
    6       -7.371330
    7       -1.237471
    8        0.528919
    9        0.528919
   10        5.554512
   11        5.890710
   12        9.581931
   13        9.622669
   14        9.622669
   15       12.851114
   16       14.098632
 
  0.3000000E+00  0.0000000E+00  0.3000000E+00  0.0000000E+00
    1       -9.966522
    2       -7.652106
    3       -7.652106
    4       -7.564487
    5       -7.470264
    6       -7.305842
    7       -1.513070
    8        0.392691
    9        0.392691
   10        5.451232
   11        5.857420
   12        9.771813
   13        9.956425
   14        9.956425
   15       12.970221
   16       14.521095
 
  0.3250000E+00  0.0000000E+00  0.3250000E+00  0.0000000E+00
    1       -9.931906
    2       -7.640153
    3       -7.640153
    4       -7.567160
    5       -7.468179
    6       -7.233780
    7       -1.771987
    8        0.267958
    9        0.267958
   10        5.354891
   11        5.791188
   12       10.029563
   13       10.296588
   14       10.296588
   15       13.094167
   16       14.894215
 
  0.3500000E+00  0.0000000E+00  0.3500000E+00  0.0000000E+00
    1       -9.900827
    2       -7.628966
    3       -7.628966
    4       -7.570608
    5       -7.466255
    6       -7.158438
    7       -2.010807
    8        0.156495
    9        0.156495
   10        5.272737
   11        5.703477
   12       10.332281
   13       10.640314
   14       10.640315
   15       13.220255
   16       15.192639
 
  0.3750000E+00  0.0000000E+00  0.3750000E+00  0.0000000E+00
    1       -9.873843
    2       -7.618840
    3       -7.618840
    4       -7.574161
    5       -7.464535
    6       -7.083316
    7       -2.225457
    8        0.059789
    9        0.059789
   10        5.206970
   11        5.607186
   12       10.658455
   13       10.983666
   14       10.983667
   15       13.344771
   16       15.379213
 
  0.4000000E+00  0.0000000E+00  0.4000000E+00  0.0000000E+00
    1       -9.851359
    2       -7.610098
    3       -7.610098
    4       -7.577465
    5       -7.463065
    6       -7.012441
    7       -2.411353
    8       -0.020954
    9       -0.020954
   10        5.158168
   11        5.512613
   12       10.987535
   13       11.320312
   14       11.320325
   15       13.462675
   16       15.483997
 
  0.4250000E+00  0.0000000E+00  0.4250000E+00  0.0000000E+00
    1       -9.833664
    2       -7.603000
    3       -7.603000
    4       -7.580263
    5       -7.461880
    6       -6.950307
    7       -2.563489
    8       -0.084752
    9       -0.084752
   10        5.125859
   11        5.427553
   12       11.297138
   13       11.639079
   14       11.639089
   15       13.567507
   16       15.127780
 
  0.4500000E+00  0.0000000E+00  0.4500000E+00  0.0000000E+00
    1       -9.820951
    2       -7.597768
    3       -7.597768
    4       -7.582380
    5       -7.461013
    6       -6.901541
    7       -2.676844
    8       -0.130857
    9       -0.130857
   10        5.108312
   11        5.358458
   12       11.559636
   13       11.919140
   14       11.919205
   15       13.651339
   16       14.797993
 
  0.4750000E+00  0.0000000E+00  0.4750000E+00  0.0000000E+00
    1       -9.813280
    2       -7.594544
    3       -7.594544
    4       -7.583687
    5       -7.460479
    6       -6.870299
    7       -2.746945
    8       -0.158735
    9       -0.158735
   10        5.101815
   11        5.311935
   12       11.740776
   13       12.123332
   14       12.123371
   15       13.706133
   16       14.563035
 
  0.5000000E+00  0.0000000E+00  0.5000000E+00  0.0000000E+00
    1       -9.810709
    2       -7.593455
    3       -7.593455
    4       -7.584125
    5       -7.460299
    6       -6.859525
    7       -2.770681
    8       -0.168064
    9       -0.168064
   10        5.100746
   11        5.295164
   12       11.806303
   13       12.200741
   14       12.200822
   15       13.725513
   16       14.476082
 
  0.5000000E+00  0.2500000E-01  0.5250000E+00  0.0000000E+00
    1       -9.810760
    2       -7.596648
    3       -7.594518
    4       -7.580350
    5       -7.460703
    6       -6.857485
    7       -2.767238
    8       -0.181071
    9       -0.177075
   10        5.132536
   11        5.326297
   12       11.694715
   13       12.068766
   14       12.260569
   15       13.760033
   16       14.449936
 
  0.5000000E+00  0.5000000E-01  0.5500000E+00  0.0000000E+00
    1       -9.810900
    2       -7.601740
    3       -7.597567
    4       -7.573531
    5       -7.461898
    6       -6.851596
    7       -2.757119
    8       -0.218569
    9       -0.202943
   10        5.226660
   11        5.418057
   12       11.448338
   13       11.734945
   14       12.358690
   15       13.830822
   16       14.363907
 
  0.5000000E+00  0.7500000E-01  0.5750000E+00  0.0000000E+00
    1       -9.811141
    2       -7.606585
    3       -7.602229
    4       -7.565884
    5       -7.463867
    6       -6.842504
    7       -2.740971
    8       -0.276323
    9       -0.242431
   10        5.379609
   11        5.565789
   12       11.135190
   13       11.295819
   14       12.444901
   15       13.945167
   16       14.394879
 
  0.5000000E+00  0.9999999E-01  0.6000000E+00  0.0000000E+00
    1       -9.811449
    2       -7.610867
    3       -7.607952
    4       -7.557829
    5       -7.466589
    6       -6.831162
    7       -2.719900
    8       -0.348115
    9       -0.290858
   10        5.586170
   11        5.762391
   12       10.780839
   13       10.810175
   14       12.516061
   15       13.959914
   16       14.330172
 
  0.5000000E+00  0.1250000E+00  0.6250000E+00  0.0000000E+00
    1       -9.811784
    2       -7.614508
    3       -7.614134
    4       -7.549601
    5       -7.470016
    6       -6.818731
    7       -2.695498
    8       -0.426679
    9       -0.342921
   10        5.839990
   11        5.998778
   12       10.308486
   13       10.402819
   14       12.575239
   15       14.007579
   16       14.361284
 
  0.5000000E+00  0.1500000E+00  0.6500000E+00  0.0000000E+00
    1       -9.812112
    2       -7.620149
    3       -7.617482
    4       -7.541430
    5       -7.474046
    6       -6.806431
    7       -2.669877
    8       -0.504514
    9       -0.393456
   10        6.133723
   11        6.263571
   12        9.807996
   13       10.017739
   14       12.625497
   15       14.043505
   16       14.347910
 
  0.5000000E+00  0.1750000E+00  0.6750000E+00  0.0000000E+00
    1       -9.812398
    2       -7.625432
    3       -7.619787
    4       -7.533618
    5       -7.478488
    6       -6.795431
    7       -2.645588
    8       -0.574328
    9       -0.437791
   10        6.458037
   11        6.541142
   12        9.321817
   13        9.644315
   14       12.666075
   15       14.104885
   16       14.333877
 
  0.5000000E+00  0.2000000E+00  0.7000000E+00  0.0000000E+00
    1       -9.812634
    2       -7.629543
    3       -7.621430
    4       -7.526649
    5       -7.482977
    6       -6.786773
    7       -2.625427
    8       -0.629663
    9       -0.472224
   10        6.797483
   11        6.806579
   12        8.866644
   13        9.309402
   14       12.697111
   15       14.094498
   16       14.258823
 
  0.5000000E+00  0.2250000E+00  0.7250000E+00  0.0000000E+00
    1       -9.812791
    2       -7.632150
    3       -7.622416
    4       -7.521398
    5       -7.486711
    6       -6.781255
    7       -2.612032
    8       -0.665219
    9       -0.493988
   10        7.015259
   11        7.112187
   12        8.482578
   13        9.058704
   14       12.717052
   15       14.107281
   16       14.241836
 
  0.5000000E+00  0.2500000E+00  0.7500000E+00  0.0000000E+00
    1       -9.812850
    2       -7.633047
    3       -7.622745
    4       -7.519328
    5       -7.488272
    6       -6.779366
    7       -2.607329
    8       -0.677485
    9       -0.501430
   10        7.098799
   11        7.269006
   12        8.302646
   13        8.961093
   14       12.723575
   15       14.108206
   16       14.257382
 
  0.4750000E+00  0.2750000E+00  0.7500000E+00  0.0000000E+00
    1       -9.813869
    2       -7.633253
    3       -7.622630
    4       -7.521101
    5       -7.486700
    6       -6.784493
    7       -2.609724
    8       -0.724198
    9       -0.412708
   10        6.852685
   11        7.262462
   12        8.481302
   13        9.106125
   14       12.556399
   15       13.818628
   16       14.377489
 
  0.4500000E+00  0.3000000E+00  0.7500000E+00  0.0000000E+00
    1       -9.816180
    2       -7.634219
    3       -7.621681
    4       -7.525112
    5       -7.483263
    6       -6.795852
    7       -2.617697
    8       -0.798778
    9       -0.229660
   10        6.362837
   11        7.265539
   12        8.887552
   13        9.406615
   14       12.154065
   15       13.376583
   16       14.727948
 
  0.4250000E+00  0.3250000E+00  0.7500000E+00  0.0000000E+00
    1       -9.818701
    2       -7.635748
    3       -7.619870
    4       -7.529445
    5       -7.479762
    6       -6.808042
    7       -2.628306
    8       -0.859378
    9       -0.032902
   10        5.911213
   11        7.254722
   12        9.380810
   13        9.746636
   14       11.644400
   15       12.951709
   16       15.083357
 
  0.4000000E+00  0.3500000E+00  0.7500000E+00  0.0000000E+00
    1       -9.820586
    2       -7.637073
    3       -7.618109
    4       -7.532710
    5       -7.477304
    6       -6.817010
    7       -2.636948
    8       -0.897533
    9        0.119169
   10        5.600606
   11        7.242679
   12        9.910710
   13       10.034555
   14       11.094650
   15       12.620217
   16       15.320438
 
  0.3750000E+00  0.3750000E+00  0.7500000E+00  0.0000000E+00
    1       -9.821280
    2       -7.637590
    3       -7.617381
    4       -7.533927
    5       -7.476434
    6       -6.820283
    7       -2.640229
    8       -0.910499
    9        0.176856
   10        5.489601
   11        7.237805
   12       10.148230
   13       10.347819
   14       10.654872
   15       12.487556
   16       15.396783
 
  0.3600000E+00  0.3600000E+00  0.7200000E+00  0.0000000E+00
    1       -9.826236
    2       -7.642458
    3       -7.623091
    4       -7.527060
    5       -7.479516
    6       -6.827698
    7       -2.615442
    8       -0.960141
    9        0.258028
   10        5.556203
   11        7.545429
   12       10.044563
   13       10.100725
   14       10.382826
   15       12.237120
   16       15.399326
 
  0.3450000E+00  0.3450000E+00  0.6900000E+00  0.0000000E+00
    1       -9.832717
    2       -7.646947
    3       -7.629258
    4       -7.520542
    5       -7.482554
    6       -6.842539
    7       -2.587338
    8       -0.978499
    9        0.345276
   10        5.624310
   11        7.783560
   12        9.864046
   13        9.922843
   14       10.240495
   15       11.993141
   16       15.291356
 
  0.3300000E+00  0.3300000E+00  0.6600000E+00  0.0000000E+00
    1       -9.840943
    2       -7.651081
    3       -7.635812
    4       -7.514529
    5       -7.485475
    6       -6.865728
    7       -2.552744
    8       -0.965023
    9        0.437659
   10        5.691175
   11        7.927063
   12        9.638644
   13        9.683670
   14       10.354001
   15       11.758485
   16       15.115573
 
  0.3150000E+00  0.3150000E+00  0.6300000E+00  0.0000000E+00
    1       -9.851128
    2       -7.654928
    3       -7.642689
    4       -7.509168
    5       -7.488225
    6       -6.897693
    7       -2.507704
    8       -0.921182
    9        0.534118
   10        5.753190
   11        7.981399
   12        9.413556
   13        9.425088
   14       10.632802
   15       11.535644
   16       14.914524
 
  0.3000000E+00  0.3000000E+00  0.6000000E+00  0.0000000E+00
    1       -9.863465
    2       -7.658570
    3       -7.649815
    4       -7.504561
    5       -7.490743
    6       -6.938270
    7       -2.448191
    8       -0.849668
    9        0.633529
   10        5.805824
   11        7.977975
   12        9.144750
   13        9.223664
   14       11.013866
   15       11.326904
   16       14.705432
 
  0.2850000E+00  0.2850000E+00  0.5700000E+00  0.0000000E+00
    1       -9.878132
    2       -7.662105
    3       -7.657117
    4       -7.500778
    5       -7.492971
    6       -6.986699
    7       -2.370763
    8       -0.753718
    9        0.734726
   10        5.843844
   11        7.950922
   12        8.884455
   13        9.034427
   14       11.134443
   15       11.454096
   16       14.498153
 
  0.2700000E+00  0.2700000E+00  0.5400000E+00  0.0000000E+00
    1       -9.895253
    2       -7.665658
    3       -7.664524
    4       -7.497862
    5       -7.494873
    6       -7.041718
    7       -2.272931
    8       -0.636612
    9        0.836504
   10        5.861943
   11        7.925064
   12        8.635798
   13        8.857225
   14       10.960468
   15       11.916921
   16       14.296671
 
  0.2550000E+00  0.2550000E+00  0.5100000E+00  0.0000000E+00
    1       -9.914881
    2       -7.671974
    3       -7.669353
    4       -7.496427
    5       -7.495823
    6       -7.101682
    7       -2.153240
    8       -0.501435
    9        0.937629
   10        5.855842
   11        7.914941
   12        8.401246
   13        8.691696
   14       10.807140
   15       12.358145
   16       14.113923
 
  0.2400000E+00  0.2400000E+00  0.4800000E+00  0.0000000E+00
    1       -9.937000
    2       -7.679404
    3       -7.673302
    4       -7.497611
    5       -7.494650
    6       -7.164707
    7       -2.011155
    8       -0.351048
    9        1.036890
   10        5.823473
   11        7.924722
   12        8.185123
   13        8.537323
   14       10.676669
   15       12.696651
   16       13.915867
 
  0.2250000E+00  0.2250000E+00  0.4500000E+00  0.0000000E+00
    1       -9.961550
    2       -7.686754
    3       -7.677604
    4       -7.498424
    5       -7.494355
    6       -7.228837
    7       -1.846875
    8       -0.188144
    9        1.133110
   10        5.765432
   11        7.918087
   12        8.025408
   13        8.393457
   14       10.571176
   15       12.812367
   16       13.644557
 
  0.2100000E+00  0.2100000E+00  0.4200000E+00  0.0000000E+00
    1       -9.988320
    2       -7.693965
    3       -7.682332
    4       -7.498865
    5       -7.495037
    6       -7.292112
    7       -1.661105
    8       -0.015325
    9        1.225188
   10        5.684344
   11        7.769949
   12        8.043629
   13        8.259395
   14       10.492635
   15       12.681461
   16       13.363866
 
  0.1950000E+00  0.1950000E+00  0.3900000E+00  0.0000000E+00
    1      -10.017010
    2       -7.700981
    3       -7.687534
    4       -7.498953
    5       -7.497092
    6       -7.352484
    7       -1.454897
    8        0.164812
    9        1.312154
   10        5.583645
   11        7.607197
   12        8.105624
   13        8.134474
   14       10.442799
   15       12.410392
   16       13.123623
 
  0.1800000E+00  0.1800000E+00  0.3600000E+00  0.0000000E+00
    1      -10.047223
    2       -7.707753
    3       -7.693215
    4       -7.501948
    5       -7.498723
    6       -7.407154
    7       -1.229554
    8        0.349563
    9        1.393164
   10        5.466444
   11        7.462342
   12        8.018148
   13        8.168834
   14       10.423072
   15       12.099332
   16       12.903301
 
  0.1650000E+00  0.1650000E+00  0.3300000E+00  0.0000000E+00
    1      -10.078496
    2       -7.714224
    3       -7.699321
    4       -7.514722
    5       -7.498202
    6       -7.449913
    7       -0.986548
    8        0.536154
    9        1.467609
   10        5.334912
   11        7.339390
   12        7.910015
   13        8.216920
   14       10.434375
   15       11.808030
   16       12.688110
 
  0.1500000E+00  0.1500000E+00  0.3000000E+00  0.0000000E+00
    1      -10.110211
    2       -7.720344
    3       -7.705778
    4       -7.543412
    5       -7.497437
    6       -7.472022
    7       -0.727499
    8        0.721544
    9        1.534991
   10        5.190169
   11        7.240383
   12        7.809913
   13        8.234549
   14       10.477204
   15       11.568838
   16       12.467727
 
  0.1350000E+00  0.1350000E+00  0.2700000E+00  0.0000000E+00
    1      -10.141710
    2       -7.726064
    3       -7.712454
    4       -7.580845
    5       -7.496475
    6       -7.480172
    7       -0.454210
    8        0.902581
    9        1.595069
   10        5.032382
   11        7.166625
   12        7.717854
   13        8.209136
   14       10.551485
   15       11.402473
   16       12.236967
 
  0.1200000E+00  0.1200000E+00  0.2400000E+00  0.0000000E+00
    1      -10.172307
    2       -7.731339
    3       -7.719193
    4       -7.617426
    5       -7.495387
    6       -7.483737
    7       -0.168756
    8        1.075954
    9        1.647777
   10        4.861065
   11        7.118790
   12        7.634037
   13        8.135784
   14       10.656683
   15       11.316547
   16       11.995082
 
  0.1050000E+00  0.1050000E+00  0.2100000E+00  0.0000000E+00
    1      -10.201336
    2       -7.736114
    3       -7.725800
    4       -7.650144
    5       -7.494229
    6       -7.485684
    7        0.126380
    8        1.238292
    9        1.693199
   10        4.675497
   11        7.096671
   12        7.558776
   13        8.020707
   14       10.791812
   15       11.299352
   16       11.752511
 
  0.9000000E-01  0.9000000E-01  0.1800000E+00  0.0000000E+00
    1      -10.228092
    2       -7.740352
    3       -7.732087
    4       -7.678247
    5       -7.493071
    6       -7.486899
    7        0.428056
    8        1.386293
    9        1.731559
   10        4.475344
   11        7.098862
   12        7.492458
   13        7.879192
   14       10.955442
   15       11.277065
   16       11.575360
 
  0.7500002E-01  0.7500002E-01  0.1500000E+00  0.0000000E+00
    1      -10.251924
    2       -7.744014
    3       -7.737847
    4       -7.701608
    5       -7.491968
    6       -7.487704
    7        0.732025
    8        1.516886
    9        1.763156
   10        4.261530
   11        7.122310
   12        7.435496