Name                                    
   5.65000000000000     
     0.515266    0.515266   -0.000000
     0.515266   -0.000000   -0.515266
    -0.000000    0.515266   -0.515266
   Ga   As
     1     1
Direct
  0.000000  0.000000  0.000000
  0.250000  0.250000  0.250000
 
   48   48   48
 -2.5807     -2.2393     -1.2549     0.26087      2.1411      4.1888      6.2032      8.0049      9.4564      10.476    
  11.043      11.191      10.997      10.564      10.005      9.4283      8.9203      8.5008      8.1545      7.8709    
  7.6448      7.4736      7.3549      7.2856      7.2629      7.2856      7.3549      7.4736      7.6448      7.8709    
  8.1545      8.5008      8.9203      9.4283      10.005      10.564      10.997      11.191      11.043      10.476    
  9.4564      8.0049      6.2032      4.1888      2.1411     0.26087     -1.2549     -2.2393     -2.2393     -1.5965    
 -.37837      1.2893      3.2402      5.2879      7.2485      8.9611      10.306      11.219      11.690      11.767    
  11.534      11.101      10.583      10.088      9.6758      9.3376      9.0596      8.8342      8.6583      8.5302    
  8.4473      8.4070      8.4070      8.4473      8.5302      8.6583      8.8342      9.0596      9.3376      9.6758    
  10.088      10.583      11.101      11.534      11.767      11.690      11.219      10.306      8.9611      7.2485    
  5.2879      3.2402      1.2893     -.37837     -1.5965     -2.2393     -1.2549     -.37837     0.98988      2.7226    
  4.6620      6.6370      8.4812      10.052      11.248      12.021      12.378      12.377      12.113      11.702    
  11.257      10.873      10.562      10.309      10.102      9.9375      9.8127      9.7266      9.6767      9.6605    
  9.6767      9.7266      9.8127      9.9375      10.102      10.309      10.562      10.873      11.257      11.702    
  12.113      12.377      12.378      12.021      11.248      10.052      8.4812      6.6370      4.6620      2.7226    
 0.98988     -.37837     -1.2549     -1.5566     0.26087      1.2893      2.7226      4.4396      6.2957      8.1357    
  9.8109      11.197      12.212      12.826      13.064      12.997      12.729      12.377      12.047      11.786    
  11.580      11.413      11.279      11.175      11.100      11.053      11.030      11.030      11.053      11.100    
  11.175      11.279      11.413      11.580      11.786      12.047      12.377      12.729      12.997      13.064    
  12.826      12.212      11.197      9.8109      8.1357      6.2957      4.4396      2.7226      1.2893     0.26087    
 -.27602     -.27602      2.1411      3.2402      4.6620      6.2957      8.0102      9.6661      11.132      12.305    
  13.124      13.580      13.716      13.616      13.390      13.146      12.959      12.824      12.721      12.642    
  12.580      12.535      12.505      12.489      12.485      12.489      12.505      12.535      12.580      12.642    
  12.721      12.824      12.959      13.146      13.390      13.616      13.716      13.580      13.124      12.305    
  11.132      9.6661      8.0102      6.2957      4.6620      3.2402      2.1411      1.4477      1.2108      1.4477    
  4.1888      5.2879      6.6370      8.1357      9.6661      11.105      12.340      13.291      13.921      14.244    
  14.320      14.242      14.114      14.025      13.985      13.973      13.973      13.978      13.986      13.995    
  14.004      14.010      14.010      14.004      13.995      13.986      13.978      13.973      13.973      13.985    
  14.025      14.114      14.242      14.320      14.244      13.921      13.291      12.340      11.105      9.6661    
  8.1357      6.6370      5.2879      4.1888      3.4151      3.0162      3.0162      3.4151      6.2032      7.2485    
  8.4812      9.8109      11.132      12.340      13.344      14.090      14.565      14.807      14.886      14.897    
  14.929      15.007      15.108      15.214      15.314      15.401      15.474      15.529      15.564      15.577    
  15.564      15.529      15.474      15.401      15.314      15.214      15.108      15.007      14.929      14.897    
  14.886      14.807      14.565      14.090      13.344      12.340      11.132      9.8109      8.4812      7.2485    
  6.2032      5.4131      4.9231      4.7572      4.9231      5.4131      8.0049      8.9611      10.052      11.197    
  12.305      13.291      14.090      14.673      15.055      15.288      15.447      15.617      15.832      16.068    
  16.305      16.525      16.719      16.882      17.011      17.099      17.144      17.144      17.099      17.011    
  16.882      16.719      16.525      16.305      16.068      15.832      15.617      15.447      15.288      15.055    
  14.673      14.090      13.291      12.305      11.197      10.052      8.9611      8.0048      7.2448      6.7209    
  6.4546      6.4546      6.7209      7.2448      9.4564      10.306      11.248      12.212      13.124      13.921    
  14.565      15.055      15.424      15.731      16.049      16.412      16.800      17.185      17.549      17.877    
  18.159      18.383      18.541      18.633      18.664      18.633      18.541      18.383      18.159      17.877    
  17.549      17.185      16.800      16.412      16.049      15.731      15.424      15.055      14.565      13.921    
  13.124      12.212      11.248      10.306      9.4564      8.7542      8.2358      7.9201      7.8144      7.9201    
  8.2358      8.7542      10.476      11.219      12.021      12.826      13.580      14.244      14.807      15.288    
  15.731      16.196      16.712      17.258      17.805      18.330      18.812      19.233      19.566      19.803    
  19.951      20.021      20.021      19.951      19.803      19.566      19.233      18.812      18.330      17.805    
  17.258      16.712      16.196      15.731      15.288      14.807      14.244      13.580      12.826      12.021    
  11.219      10.476      9.8427      9.3514      9.0199      8.8539      8.8539      9.0199      9.3515      9.8427    
  11.043      11.690      12.378      13.064      13.716      14.320      14.886      15.447      16.049      16.712    
  17.414      18.125      18.818      19.470      20.044      20.498      20.825      21.035      21.150      21.186    
  21.150      21.035      20.825      20.498      20.044      19.470      18.818      18.125      17.414      16.712    
  16.049      15.447      14.886      14.320      13.716      13.064      12.378      11.690      11.043      10.475    
  10.018      9.6878      9.4899      9.4243      9.4899      9.6878      10.018      10.475      11.191      11.767    
  12.377      12.997      13.616      14.242      14.897      15.617      16.412      17.258      18.125      18.985    
  19.809      20.546      21.138      21.570      21.854      22.019      22.094      22.094      22.019      21.854    
  21.570      21.138      20.546      19.809      18.985      18.125      17.258      16.412      15.617      14.897    
  14.242      13.616      12.997      12.377      11.767      11.191      10.677      10.249      9.9246      9.7087    
  9.6017      9.6017      9.7087      9.9246      10.249      10.677      10.997      11.534      12.113      12.729    
  13.390      14.114      14.929      15.832      16.800      17.805      18.818      19.809      20.716      21.463    
  22.021      22.398      22.627      22.745      22.781      22.745      22.627      22.398      22.021      21.463    
  20.716      19.809      18.818      17.805      16.800      15.832      14.929      14.114      13.390      12.729    
  12.113      11.534      10.997      10.516      10.108      9.7852      9.5549      9.4180      9.3727      9.4180    
  9.5549      9.7852      10.108      10.516      10.564      11.101      11.702      12.377      13.146      14.025    
  15.007      16.068      17.185      18.330      19.470      20.546      21.463      22.171      22.668      22.982    
  23.158      23.234      23.234      23.158      22.982      22.668      22.171      21.463      20.546      19.470    
  18.330      17.185      16.068      15.007      14.025      13.146      12.377      11.702      11.101      10.564    
  10.091      9.6865      9.3584      9.1117      8.9481      8.8670      8.8670      8.9481      9.1117      9.3584    
  9.6865      10.091      10.005      10.583      11.257      12.047      12.959      13.985      15.108      16.305    
  17.549      18.812      20.044      21.138      22.021      22.668      23.099      23.357      23.488      23.527    
  23.488      23.357      23.099      22.668      22.021      21.138      20.044      18.812      17.549      16.305    
  15.108      13.985      12.959      12.047      11.257      10.583      10.005      9.5099      9.0906      8.7463    
  8.4783      8.2875      8.1737      8.1360      8.1737      8.2875      8.4783      8.7463      9.0906      9.5099    
  9.4283      10.088      10.873      11.786      12.824      13.973      15.214      16.525      17.877      19.233    
  20.498      21.570      22.398      22.982      23.357      23.569      23.662      23.662      23.569      23.357    
  22.982      22.398      21.570      20.498      19.233      17.877      16.525      15.214      13.973      12.824    
  11.786      10.873      10.088      9.4282      8.8784      8.4218      8.0480      7.7519      7.5313      7.3851    
  7.3123      7.3123      7.3851      7.5313      7.7519      8.0480      8.4218      8.8784      8.9203      9.6758    
  10.562      11.580      12.721      13.973      15.314      16.719      18.159      19.566      20.825      21.854    
  22.627      23.158      23.488      23.662      23.716      23.662      23.488      23.158      22.627      21.854    
  20.825      19.566      18.159      16.719      15.314      13.973      12.721      11.580      10.562      9.6758    
  8.9203      8.2889      7.7706      7.3509      7.0172      6.7623      6.5822      6.4750      6.4393      6.4750    
  6.5822      6.7623      7.0172      7.3509      7.7706      8.2889      8.5008      9.3376      10.309      11.413    
  12.642      13.978      15.401      16.882      18.383      19.803      21.035      22.019      22.745      23.234    
  23.527      23.662      23.662      23.527      23.234      22.745      22.019      21.035      19.803      18.383    
  16.882      15.401      13.978      12.642      11.413      10.309      9.3376      8.5008      7.7937      7.2064    
  6.7267      6.3434      6.0468      5.8293      5.6865      5.6156      5.6156      5.6865      5.8293      6.0468    
  6.3434      6.7267      7.2064      7.7937      8.1545      9.0596      10.102      11.279      12.580      13.986    
  15.474      17.011      18.541      19.951      21.150      22.094      22.781      23.234      23.488      23.569    
  23.488      23.234      22.781      22.094      21.150      19.951      18.541      17.011      15.474      13.986    
  12.580      11.279      10.102      9.0596      8.1545      7.3836      6.7377      6.2048      5.7730      5.4318    
  5.1736      4.9928      4.8858      4.8504      4.8858      4.9928      5.1736      5.4318      5.7730      6.2048    
  6.7377      7.3836      7.8709      8.8342      9.9375      11.175      12.535      13.995      15.529      17.099    
  18.633      20.021      21.186      22.094      22.745      23.158      23.357      23.357      23.158      22.745    
  22.094      21.186      20.021      18.633      17.099      15.529      13.995      12.535      11.175      9.9375    
  8.8342      7.8709      7.0455      6.3497      5.7717      5.2987      4.9194      4.6251      4.4094      4.2679    
  4.1979      4.1979      4.2679      4.4094      4.6251      4.9194      5.2987      5.7717      6.3497      7.0455    
  7.6448      8.6583      9.8127      11.100      12.505      14.004      15.564      17.144      18.664      20.021    
  21.150      22.019      22.627      22.982      23.099      22.982      22.627      22.019      21.150      20.021    
  18.664      17.144      15.564      14.004      12.505      11.100      9.8127      8.6583      7.6448      6.7719    
  6.0326      5.4154      4.9069      4.4949      4.1694      3.9231      3.7508      3.6488      3.6151      3.6488    
  3.7508      3.9231      4.1694      4.4949      4.9069      5.4154      6.0326      6.7719      7.4736      8.5302    
  9.7266      11.053      12.489      14.010      15.577      17.144      18.633      19.951      21.035      21.854    
  22.398      22.668      22.668      22.398      21.854      21.035      19.951      18.633      17.144      15.577    
  14.010      12.489      11.053      9.7266      8.5302      7.4736      6.5589      5.7807      5.1282      4.5881    
  4.1472      3.7945      3.5214      3.3219      3.1914      3.1269      3.1269      3.1914      3.3219      3.5214    
  3.7945      4.1472      4.5881      5.1282      5.7807      6.5589      7.3549      8.4473      9.6767      11.030    
  12.485      14.010      15.564      17.099      18.541      19.803      20.825      21.570      22.021      22.171    
  22.021      21.570      20.825      19.803      18.541      17.099      15.564      14.010      12.485      11.030    
  9.6767      8.4473      7.3549      6.4037      5.5905      4.9057      4.3363      3.8689      3.4915      3.1945    
  2.9707      2.8149      2.7231      2.6928      2.7231      2.8149      2.9707      3.1945      3.4915      3.8689    
  4.3363      4.9057      5.5905      6.4037      7.2856      8.4070      9.6605      11.030      12.489      14.004    
  15.529      17.011      18.383      19.566      20.498      21.138      21.463      21.463      21.138      20.498    
  19.566      18.383      17.011      15.529      14.004      12.489      11.030      9.6605      8.4070      7.2856    
  6.3032      5.4587      4.7440      4.1471      3.6546      3.2540      2.9348      2.6891      2.5105      2.3944    
  2.3373      2.3373      2.3944      2.5105      2.6891      2.9348      3.2540      3.6546      4.1471      4.7440    
  5.4587      6.3032      7.2629      8.4070      9.6767      11.053      12.505      13.995      15.474      16.882    
  18.159      19.233      20.044      20.546      20.716      20.546      20.044      19.233      18.159      16.882    
  15.474      13.995      12.505      11.053      9.6767      8.4070      7.2629      6.2541      5.3817      4.6394    
  4.0164      3.4997      3.0767      2.7364      2.4700      2.2706      2.1326      2.0518      2.0252      2.0518    
  2.1326      2.2706      2.4700      2.7364      3.0767      3.4997      4.0164      4.6394      5.3817      6.2541    
  7.2856      8.4473      9.7266      11.100      12.535      13.986      15.401      16.719      17.877      18.812    
  19.470      19.809      19.809      19.470      18.812      17.877      16.719      15.401      13.986      12.535    
  11.100      9.7266      8.4473      7.2856      6.2541      5.3564      4.5882      3.9401      3.3998      2.9547    
  2.5937      2.3074      2.0883      1.9303      1.8282      1.7782      1.7782      1.8282      1.9303      2.0883    
  2.3074      2.5937      2.9547      3.3998      3.9401      4.5882      5.3564      6.2541      7.3549      8.5302    
  9.8127      11.175      12.580      13.978      15.314      16.525      17.549      18.330      18.818      18.985    
  18.818      18.330      17.549      16.525      15.314      13.978      12.580      11.175      9.8127      8.5302    
  7.3549      6.3032      5.3817      4.5882      3.9151      3.3509      2.8837      2.5019      2.1960      1.9578    
  1.7808      1.6591      1.5882      1.5649      1.5882      1.6591      1.7808      1.9578      2.1960      2.5019    
  2.8837      3.3509      3.9151      4.5882      5.3817      6.3032      7.4736      8.6583      9.9375      11.279    
  12.642      13.973      15.214      16.305      17.185      17.805      18.125      18.125      17.805      17.185    
  16.305      15.214      13.973      12.642      11.279      9.9375      8.6583      7.4736      6.4037      5.4587    
  4.6394      3.9401      3.3509      2.8604      2.4571      2.1311      1.8740      1.6784      1.5382      1.4481    
  1.4042      1.4042      1.4481      1.5382      1.6784      1.8740      2.1311      2.4571      2.8604      3.3509    
  3.9401      4.6394      5.4587      6.4037      7.6448      8.8342      10.102      11.413      12.721      13.973    
  15.108      16.068      16.800      17.258      17.414      17.258      16.800      16.068      15.108      13.973    
  12.721      11.413      10.102      8.8342      7.6448      6.5589      5.5905      4.7440      4.0164      3.3998    
  2.8837      2.4571      2.1099      1.8330      1.6188      1.4605      1.3522      1.2893      1.2687      1.2893    
  1.3522      1.4605      1.6188      1.8330      2.1099      2.4571      2.8837      3.3998      4.0164      4.7440    
  5.5905      6.5589      7.8709      9.0596      10.309      11.580      12.824      13.985      15.007      15.832    
  16.412      16.712      16.712      16.412      15.832      15.007      13.985      12.824      11.580      10.309    
  9.0596      7.8709      6.7719      5.7807      4.9057      4.1471      3.4997      2.9547      2.5019      2.1311    
  1.8330      1.5993      1.4225      1.2963      1.2154      1.1760      1.1760      1.2154      1.2963      1.4225    
  1.5993      1.8330      2.1311      2.5019      2.9547      3.4997      4.1471      4.9057      5.7807      6.7719    
  8.1545      9.3376      10.562      11.786      12.959      14.025      14.929      15.617      16.049      16.196    
  16.049      15.617      14.929      14.025      12.959      11.786      10.562      9.3376      8.1545      7.0455    
  6.0326      5.1282      4.3363      3.6546      3.0767      2.5937      2.1960      1.8740      1.6188      1.4225    
  1.2779      1.1793      1.1220      1.1032      1.1220      1.1793      1.2779      1.4225      1.6188      1.8740    
  2.1960      2.5937      3.0767      3.6546      4.3363      5.1282      6.0326      7.0455      8.5008      9.6758    
  10.873      12.047      13.146      14.114      14.897      15.447      15.731      15.731      15.447      14.897    
  14.114      13.146      12.047      10.873      9.6758      8.5008      7.3836      6.3497      5.4154      4.5881    
  3.8689      3.2540      2.7364      2.3074      1.9578      1.6784      1.4605      1.2963      1.1793      1.1042    
  1.0676      1.0676      1.1042      1.1793      1.2963      1.4605      1.6784      1.9578      2.3074      2.7364    
  3.2540      3.8689      4.5881      5.4154      6.3497      7.3836      8.9203      10.088      11.257      12.377    
  13.390      14.242      14.886      15.288      15.424      15.288      14.886      14.242      13.390      12.377    
  11.257      10.088      8.9203      7.7937      6.7377      5.7717      4.9069      4.1472      3.4915      2.9348    
  2.4700      2.0883      1.7808      1.5382      1.3522      1.2154      1.1220      1.0676      1.0498      1.0676    
  1.1220      1.2154      1.3522      1.5382      1.7808      2.0883      2.4700      2.9348      3.4915      4.1472    
  4.9069      5.7717      6.7377      7.7937      9.4283      10.583      11.702      12.729      13.616      14.320    
  14.807      15.055      15.055      14.807      14.320      13.616      12.729      11.702      10.583      9.4282    
  8.2889      7.2064      6.2048      5.2987      4.4949      3.7945      3.1945      2.6891      2.2706      1.9303    
  1.6591      1.4481      1.2893      1.1760      1.1032      1.0676      1.0676      1.1032      1.1760      1.2893    
  1.4481      1.6591      1.9303      2.2706      2.6891      3.1945      3.7945      4.4949      5.2987      6.2048    
  7.2064      8.2889      10.005      11.101      12.113      12.997      13.716      14.244      14.565      14.673    
  14.565      14.244      13.716      12.997      12.113      11.101      10.005      8.8784      7.7706      6.7267    
  5.7730      4.9194      4.1694      3.5214      2.9707      2.5105      2.1326      1.8282      1.5882      1.4042    
  1.2687      1.1760      1.1220      1.1042      1.1220      1.1760      1.2687      1.4042      1.5882      1.8282    
  2.1326      2.5105      2.9707      3.5214      4.1694      4.9194      5.7730      6.7268      7.7706      8.8784    
  10.564      11.534      12.377      13.064      13.580      13.921      14.090      14.090      13.921      13.580    
  13.064      12.377      11.534      10.564      9.5099      8.4218      7.3509      6.3434      5.4318      4.6251    
  3.9231      3.3219      2.8149      2.3944      2.0518      1.7782      1.5649      1.4042      1.2893      1.2154    
  1.1793      1.1793      1.2154      1.2893      1.4042      1.5649      1.7782      2.0518      2.3944      2.8149    
  3.3219      3.9231      4.6251      5.4318      6.3434      7.3509      8.4218      9.5099      10.997      11.767    
  12.378      12.826      13.124      13.291      13.344      13.291      13.124      12.826      12.378      11.767    
  10.997      10.091      9.0906      8.0480      7.0172      6.0468      5.1736      4.4094      3.7508      3.1914    
  2.7231      2.3373      2.0252      1.7782      1.5882      1.4481      1.3522      1.2963      1.2779      1.2963    
  1.3522      1.4481      1.5882      1.7782      2.0252      2.3373      2.7231      3.1914      3.7508      4.4094    
  5.1736      6.0468      7.0172      8.0480      9.0906      10.091      11.191      11.690      12.021      12.212    
  12.305      12.340      12.340      12.305      12.212      12.021      11.690      11.191      10.516      9.6865    
  8.7463      7.7519      6.7623      5.8293      4.9928      4.2679      3.6488      3.1269      2.6928      2.3373    
  2.0518      1.8282      1.6591      1.5382      1.4605      1.4225      1.4225      1.4605      1.5382      1.6591    
  1.8282      2.0518      2.3373      2.6928      3.1269      3.6488      4.2679      4.9928      5.8293      6.7623    
  7.7519      8.7463      9.6865      10.516      11.043      11.219      11.248      11.197      11.132      11.105    
  11.132      11.197      11.248      11.219      11.043      10.677      10.108      9.3584      8.4783      7.5313    
  6.5822      5.6865      4.8858      4.1979      3.6151      3.1269      2.7231      2.3944      2.1326      1.9303    
  1.7808      1.6784      1.6188      1.5993      1.6188      1.6784      1.7808      1.9303      2.1326      2.3944    
  2.7231      3.1269      3.6151      4.1979      4.8858      5.6865      6.5822      7.5313      8.4783      9.3584    
  10.108      10.677      10.476      10.306      10.052      9.8109      9.6661      9.6661      9.8109      10.052    
  10.306      10.476      10.475      10.249      9.7852      9.1117      8.2875      7.3851      6.4750      5.6156    
  4.8504      4.1979      3.6488      3.1914      2.8149      2.5105      2.2706      2.0883      1.9578      1.8740    
  1.8330      1.8330      1.8740      1.9578      2.0883      2.2706      2.5105      2.8149      3.1914      3.6488    
  4.1979      4.8504      5.6156      6.4750      7.3851      8.2875      9.1117      9.7852      10.249      10.475    
  9.4564      8.9611      8.4812      8.1357      8.0102      8.1357      8.4812      8.9611      9.4564      9.8427    
  10.018      9.9246      9.5549      8.9481      8.1737      7.3123      6.4393      5.6156      4.8858      4.2679    
  3.7508      3.3219      2.9707      2.6891      2.4700      2.3074      2.1960      2.1311      2.1099      2.1311    
  2.1960      2.3074      2.4700      2.6891      2.9707      3.3219      3.7508      4.2679      4.8858      5.6156    
  6.4393      7.3123      8.1737      8.9481      9.5549      9.9246      10.018      9.8427      8.0049      7.2485    
  6.6370      6.2957      6.2957      6.6370      7.2485      8.0048      8.7542      9.3514      9.6878      9.7087    
  9.4180      8.8670      8.1360      7.3123      6.4750      5.6865      4.9928      4.4094      3.9231      3.5214    
  3.1945      2.9348      2.7364      2.5937      2.5019      2.4571      2.4571      2.5019      2.5937      2.7364    
  2.9348      3.1945      3.5214      3.9231      4.4094      4.9928      5.6865      6.4750      7.3123      8.1360    
  8.8670      9.4180      9.7087      9.6878      9.3515      8.7542      6.2032      5.2879      4.6620      4.4396    
  4.6620      5.2879      6.2032      7.2448      8.2358      9.0199      9.4899      9.6017      9.3727      8.8670    
  8.1737      7.3851      6.5822      5.8293      5.1736      4.6251      4.1694      3.7945      3.4915      3.2540    
  3.0767      2.9547      2.8837      2.8604      2.8837      2.9547      3.0767      3.2540      3.4915      3.7945    
  4.1694      4.6251      5.1736      5.8293      6.5822      7.3851      8.1737      8.8670      9.3727      9.6017    
  9.4899      9.0199      8.2358      7.2448      4.1888      3.2402      2.7226      2.7226      3.2402      4.1888    
  5.4131      6.7209      7.9201      8.8539      9.4243      9.6017      9.4180      8.9481      8.2875      7.5313    
  6.7623      6.0468      5.4318      4.9194      4.4949      4.1472      3.8689      3.6546      3.4997      3.3998    
  3.3509      3.3509      3.3998      3.4997      3.6546      3.8689      4.1472      4.4949      4.9194      5.4318    
  6.0468      6.7623      7.5313      8.2875      8.9481      9.4180      9.6017      9.4243      8.8539      7.9201    
  6.7209      5.4131      2.1411      1.2893     0.98988      1.2893      2.1411      3.4151      4.9231      6.4546    
  7.8144      8.8539      9.4899      9.7087      9.5549      9.1117      8.4783      7.7519      7.0172      6.3434    
  5.7730      5.2987      4.9069      4.5881      4.3363      4.1471      4.0164      3.9401      3.9151      3.9401    
  4.0164      4.1471      4.3363      4.5881      4.9069      5.2987      5.7730      6.3434      7.0172      7.7519    
  8.4783      9.1117      9.5549      9.7087      9.4899      8.8539      7.8144      6.4546      4.9231      3.4151    
 0.26087     -.37837     -.37837     0.26087      1.4477      3.0162      4.7572      6.4546      7.9201      9.0199    
  9.6878      9.9246      9.7852      9.3584      8.7463      8.0480      7.3509      6.7267      6.2048      5.7717    
  5.4154      5.1282      4.9057      4.7440      4.6394      4.5882      4.5882      4.6394      4.7440      4.9057    
  5.1282      5.4154      5.7717      6.2048      6.7268      7.3509      8.0480      8.7463      9.3584      9.7852    
  9.9246      9.6878      9.0199      7.9201      6.4546      4.7572      3.0162      1.4477     -1.2549     -1.5965    
 -1.2549     -.27602      1.2108      3.0162      4.9231      6.7209      8.2358      9.3515      10.018      10.249    
  10.108      9.6865      9.0906      8.4218      7.7706      7.2064      6.7377      6.3497      6.0326      5.7807    
  5.5905      5.4587      5.3817      5.3564      5.3817      5.4587      5.5905      5.7807      6.0326      6.3497    
  6.7377      7.2064      7.7706      8.4218      9.0906      9.6865      10.108      10.249      10.018      9.3515    
  8.2358      6.7209      4.9231      3.0162      1.2108     -.27602     -2.2393     -2.2393     -1.5566     -.27602    
  1.4477      3.4151      5.4131      7.2448      8.7542      9.8427      10.475      10.677      10.516      10.091    
  9.5099      8.8784      8.2889      7.7937      7.3836      7.0455      6.7719      6.5589      6.4037      6.3032    
  6.2541      6.2541      6.3032      6.4037      6.5589      6.7719      7.0455      7.3836      7.7937      8.2889    
  8.8784      9.5099      10.091      10.516      10.677      10.475      9.8427      8.7542      7.2448      5.4131    
  3.4151      1.4477     -.27602     -1.5566     -2.2393     -1.5965     -.37837      1.2893      3.2402      5.2879    
  7.2485      8.9611      10.306      11.219      11.690      11.767      11.534      11.101      10.583      10.088    
  9.6758      9.3376      9.0596      8.8342      8.6583      8.5302      8.4473      8.4070      8.4070      8.4473    
  8.5302      8.6583      8.8342      9.0596      9.3376      9.6758      10.088      10.583      11.101      11.534    
  11.767      11.690      11.219      10.306      8.9611      7.2485      5.2879      3.2402      1.2893     -.37837    
 -1.5965     -2.2393     -1.5965     -.70045     0.69911      2.4730      4.4610      6.4889      8.3866      10.008    
  11.249      12.058      12.442      12.459      12.206      11.798      11.353      10.966      10.654      10.399    
  10.191      10.025      9.8995      9.8126      9.7623      9.7458      9.7623      9.8126      9.8995      10.025    
  10.191      10.399      10.654      10.966      11.353      11.798      12.206      12.459      12.442      12.058    
  11.249      10.008      8.3866      6.4888      4.4610      2.4730     0.69911     -.70044     -1.5965     -1.9049    
 -.37837     0.69911      2.2027      4.0077      5.9638      7.9095      9.6890      11.172      12.269      12.948    
  13.233      13.196      12.943      12.594      12.260      11.996      11.788      11.619      11.484      11.378    
  11.301      11.253      11.229      11.229      11.253      11.301      11.378      11.484      11.619      11.788    
  11.996      12.260      12.594      12.943      13.196      13.233      12.948      12.269      11.172      9.6890    
  7.9095      5.9638      4.0077      2.2027     0.69911     -.37837     -.94039     -.94039      1.2893      2.4730    