Name                                    
   5.65000000000000     
     0.510453    0.510453   -0.000000
     0.510453   -0.000000   -0.510453
    -0.000000    0.510453   -0.510453
   Ga   As
     1     1
Direct
 -0.000000 -0.000000  0.000000
  0.250000  0.250000  0.250000
 
   48   48   48
 -.23370602893E+01 -.19769811717E+01 -.93979609449E+00 0.65219236222E+00 0.26164209553E+01
 0.47372094896E+01 0.67961772696E+01 0.86012646234E+01 0.10010188598E+02 0.10944825318E+02
 0.11394421024E+02 0.11407958733E+02 0.11078625198E+02 0.10524788523E+02 0.98715540432E+01
 0.92353441695E+01 0.86971758121E+01 0.82559301568E+01 0.78945095358E+01 0.76018952215E+01
 0.73719454202E+01 0.72006028761E+01 0.70836405014E+01 0.70162471674E+01 0.69943256188E+01
 0.70162472580E+01 0.70836404873E+01 0.72006026459E+01 0.73719450799E+01 0.76018949141E+01
 0.78945092710E+01 0.82559299041E+01 0.86971756415E+01 0.92353441661E+01 0.98715541438E+01
 0.10524788578E+02 0.11078625179E+02 0.11407958751E+02 0.11394421139E+02 0.10944825444E+02
 0.10010188632E+02 0.86012645671E+01 0.67961771607E+01 0.47372093241E+01 0.26164207522E+01
 0.65219222483E+00 -.93979608907E+00 -.19769810999E+01 -.19769811717E+01 -.12991144033E+01
 -.17419399559E-01 0.17303075892E+01 0.37610690855E+01 0.58704222715E+01 0.78582936845E+01
 0.95537603379E+01 0.10835419071E+02 0.11643918999E+02 0.11984344942E+02 0.11918464818E+02
 0.11549309941E+02 0.11001919889E+02 0.10403964741E+02 0.98667136327E+01 0.94287758868E+01
 0.90723800209E+01 0.87830665408E+01 0.85525114270E+01 0.83761830067E+01 0.82503820285E+01
 0.81706634491E+01 0.81323524059E+01 0.81323533777E+01 0.81706646975E+01 0.82503813409E+01
 0.83761813011E+01 0.85525111789E+01 0.87830677060E+01 0.90723803000E+01 0.94287746730E+01
 0.98667128369E+01 0.10403965286E+02 0.11001920134E+02 0.11549308731E+02 0.11918463674E+02
 0.11984345452E+02 0.11643920016E+02 0.10835418681E+02 0.95537591231E+01 0.78582934851E+01
 0.58704227517E+01 0.37610684864E+01 0.17303065066E+01 -.17418297210E-01 -.12991110376E+01
 -.19769792400E+01 -.93979609449E+00 -.17419399559E-01 0.14181034189E+01 0.32262004600E+01
 0.52326613636E+01 0.72493528833E+01 0.90963796548E+01 0.10624307747E+02 0.11732928283E+02
 0.12382695294E+02 0.12596211623E+02 0.12449593656E+02 0.12055987134E+02 0.11544956981E+02
 0.11041690989E+02 0.10627745193E+02 0.10296771904E+02 0.10030707055E+02 0.98181142399E+01
 0.96530019532E+01 0.95317531620E+01 0.94505149660E+01 0.94046006160E+01 0.93898557508E+01
 0.94046008267E+01 0.94505152055E+01 0.95317533942E+01 0.96530023841E+01 0.98181149384E+01
 0.10030707618E+02 0.10296771743E+02 0.10627744204E+02 0.11041689764E+02 0.11544956226E+02
 0.12055986974E+02 0.12449593681E+02 0.12596211535E+02 0.12382695262E+02 0.11732928532E+02
 0.10624308050E+02 0.90963795099E+01 0.72493521727E+01 0.52326605611E+01 0.32262000928E+01
 0.14181035261E+01 -.17419150902E-01 -.93979595302E+00 -.12577927062E+01 0.65219236222E+00
 0.17303075892E+01 0.32262004600E+01 0.50053570097E+01 0.69071935356E+01 0.87617182805E+01
 0.10409779919E+02 0.11724210890E+02 0.12627618255E+02 0.13102469603E+02 0.13190781976E+02
 0.12983384132E+02 0.12601262332E+02 0.12173122925E+02 0.11807409552E+02 0.11525090450E+02
 0.11305403415E+02 0.11133219136E+02 0.11000012244E+02 0.10901370373E+02 0.10833797131E+02
 0.10792945793E+02 0.10774103419E+02 0.10774102986E+02 0.10792945318E+02 0.10833797770E+02
 0.10901371848E+02 0.11000013476E+02 0.11133219944E+02 0.11305404258E+02 0.11525090876E+02
 0.11807408538E+02 0.12173120887E+02 0.12601261183E+02 0.12983384695E+02 0.13190782814E+02
 0.13102469357E+02 0.12627617762E+02 0.11724211544E+02 0.10409781073E+02 0.87617181537E+01
 0.69071921315E+01 0.50053560262E+01 0.32262003804E+01 0.17303070327E+01 0.65219081647E+00
 0.88097414110E-01 0.88098331569E-01 0.26164209553E+01 0.37610690855E+01 0.52326613636E+01
 0.69071935356E+01 0.86392883606E+01 0.10277613872E+02 0.11684740580E+02 0.12757777782E+02
 0.13444782190E+02 0.13752432615E+02 0.13742614268E+02 0.13518459803E+02 0.13203066654E+02
 0.12914771807E+02 0.12705990813E+02 0.12557798832E+02 0.12451265556E+02 0.12374433448E+02
 0.12320955343E+02 0.12286928566E+02 0.12268242239E+02 0.12259976613E+02 0.12257803120E+02
 0.12259976215E+02 0.12268241450E+02 0.12286927808E+02 0.12320955541E+02 0.12374435308E+02
 0.12451268591E+02 0.12557801374E+02 0.12705991338E+02 0.12914770332E+02 0.13203064629E+02
 0.13518458620E+02 0.13742614102E+02 0.13752432800E+02 0.13444782306E+02 0.12757777967E+02
 0.11684740913E+02 0.10277614011E+02 0.86392880057E+01 0.69071929376E+01 0.52326610758E+01
 0.37610693333E+01 0.26164214672E+01 0.18916346605E+01 0.16436634656E+01 0.18916342915E+01
 0.47372094896E+01 0.58704222715E+01 0.72493528833E+01 0.87617182805E+01 0.10277613872E+02
 0.11665290239E+02 0.12811207308E+02 0.13639658837E+02 0.14126585556E+02 0.14303413517E+02
 0.14249364127E+02 0.14073815265E+02 0.13892970643E+02 0.13782522044E+02 0.13731263534E+02
 0.13716802959E+02 0.13723217576E+02 0.13741081553E+02 0.13764915652E+02 0.13790164991E+02
 0.13811636987E+02 0.13824080237E+02 0.13824079767E+02 0.13811635403E+02 0.13790162416E+02
 0.13764913392E+02 0.13741081551E+02 0.13723220583E+02 0.13716807476E+02 0.13731266901E+02
 0.13782522643E+02 0.13892968940E+02 0.14073812919E+02 0.14249362469E+02 0.14303412900E+02
 0.14126585667E+02 0.13639659178E+02 0.12811207442E+02 0.11665289993E+02 0.10277613489E+02
 0.87617182549E+01 0.72493535095E+01 0.58704233638E+01 0.47372105763E+01 0.39352897096E+01
 0.35206804998E+01 0.35206802619E+01 0.39352889932E+01 0.67961772696E+01 0.78582936845E+01
 0.90963796548E+01 0.10409779919E+02 0.11684740580E+02 0.12811207308E+02 0.13702551321E+02
 0.14312853498E+02 0.14646560370E+02 0.14757227595E+02 0.14735070628E+02 0.14686272197E+02
 0.14696605601E+02 0.14765885060E+02 0.14868947566E+02 0.14985830625E+02 0.15103132455E+02
 0.15212460088E+02 0.15307621694E+02 0.15382511598E+02 0.15430852926E+02 0.15447616117E+02
 0.15430852026E+02 0.15382509285E+02 0.15307618204E+02 0.15212457068E+02 0.15103131918E+02
 0.14985833248E+02 0.14868952013E+02 0.14765888850E+02 0.14696606806E+02 0.14686270726E+02
 0.14735068095E+02 0.14757225810E+02 0.14646559900E+02 0.14312853707E+02 0.13702551526E+02
 0.12811207443E+02 0.11684740785E+02 0.10409780067E+02 0.90963795748E+01 0.78582935613E+01
 0.67961774597E+01 0.59874416757E+01 0.54835630404E+01 0.53126774723E+01 0.54835625673E+01
 0.59874411442E+01 0.86012646234E+01 0.95537603379E+01 0.10624307747E+02 0.11724210890E+02
 0.12757777782E+02 0.13639658837E+02 0.14312853498E+02 0.14761964796E+02 0.15017322101E+02
 0.15148078601E+02 0.15245621740E+02 0.15394468600E+02 0.15603562009E+02 0.15846065090E+02
 0.16098354610E+02 0.16342601740E+02 0.16566301879E+02 0.16760144023E+02 0.16915901219E+02
 0.17025641098E+02 0.17082538663E+02 0.17082538911E+02 0.17025640756E+02 0.16915898604E+02
 0.16760139416E+02 0.16566297722E+02 0.16342600469E+02 0.16098356818E+02 0.15846069438E+02
 0.15603566144E+02 0.15394470371E+02 0.15245620536E+02 0.15148075899E+02 0.15017320139E+02
 0.14761964469E+02 0.14312853976E+02 0.13639659197E+02 0.12757778092E+02 0.11724211306E+02
 0.10624307577E+02 0.95537590429E+01 0.86012631922E+01 0.78365405452E+01 0.73060426051E+01
 0.70354663728E+01 0.70354655044E+01 0.73060411960E+01 0.78365405147E+01 0.10010188598E+02
 0.10835419071E+02 0.11732928283E+02 0.12627618255E+02 0.13444782190E+02 0.14126585556E+02
 0.14646560370E+02 0.15017322101E+02 0.15288508571E+02 0.15534806911E+02 0.15832359302E+02
 0.16193705306E+02 0.16591354501E+02 0.16998779111E+02 0.17393818915E+02 0.17759091371E+02
 0.18080740912E+02 0.18346665040E+02 0.18543557990E+02 0.18662927395E+02 0.18702756340E+02
 0.18662927965E+02 0.18543557368E+02 0.18346661980E+02 0.18080736327E+02 0.17759087562E+02
 0.17393817737E+02 0.16998780996E+02 0.16591358441E+02 0.16193709203E+02 0.15832360939E+02
 0.15534805577E+02 0.15288505790E+02 0.15017320164E+02 0.14646560115E+02 0.14126586031E+02
 0.13444782325E+02 0.12627618062E+02 0.11732928220E+02 0.10835419097E+02 0.10010188448E+02
 0.93192947302E+01 0.88049614708E+01 0.84902079177E+01 0.83845317958E+01 0.84902075039E+01
 0.88049612087E+01 0.93192948519E+01 0.10944825318E+02 0.11643918999E+02 0.12382695294E+02
 0.13102469603E+02 0.13752432615E+02 0.14303413517E+02 0.14757227595E+02 0.15148078601E+02
 0.15534806911E+02 0.15981645375E+02 0.16498783562E+02 0.17058711035E+02 0.17633020584E+02
 0.18195858455E+02 0.18724832408E+02 0.19200362193E+02 0.19597743076E+02 0.19895372988E+02
 0.20089258262E+02 0.20183933348E+02 0.20183934209E+02 0.20089259575E+02 0.19895372621E+02
 0.19597740581E+02 0.19200358845E+02 0.18724829593E+02 0.18195857153E+02 0.17633021681E+02
 0.17058714509E+02 0.16498787428E+02 0.15981646899E+02 0.15534805364E+02 0.15148075922E+02
 0.14757225992E+02 0.14303413265E+02 0.13752432640E+02 0.13102469383E+02 0.12382695322E+02
 0.11643919692E+02 0.10944826265E+02 0.10338446748E+02 0.98631118543E+01 0.95401756495E+01
 0.93778650767E+01 0.93778653903E+01 0.95401762932E+01 0.98631121727E+01 0.10338446305E+02
 0.11394421024E+02 0.11984344942E+02 0.12596211623E+02 0.13190781976E+02 0.13742614268E+02
 0.14249364127E+02 0.14735070628E+02 0.15245621740E+02 0.15832359302E+02 0.16498783562E+02
 0.17217992950E+02 0.17960875774E+02 0.18698965503E+02 0.19405430311E+02 0.20051895957E+02
 0.20593758247E+02 0.21003907479E+02 0.21281725293E+02 0.21439594496E+02 0.21490464434E+02
 0.21439597361E+02 0.21281727881E+02 0.21003907342E+02 0.20593755925E+02 0.20051893271E+02
 0.19405428216E+02 0.18698964538E+02 0.17960876987E+02 0.17217996606E+02 0.16498787608E+02
 0.15832360850E+02 0.15245620185E+02 0.14735068155E+02 0.14249362965E+02 0.13742614513E+02
 0.13190782416E+02 0.12596211623E+02 0.11984344757E+02 0.11394420890E+02 0.10867735251E+02
 0.10437600513E+02 0.10124255607E+02 0.99357520817E+01 0.98730737562E+01 0.99357519961E+01
 0.10124255653E+02 0.10437600717E+02 0.10867735426E+02 0.11407958733E+02 0.11918464818E+02
 0.12449593656E+02 0.12983384132E+02 0.13518459803E+02 0.14073815265E+02 0.14686272197E+02
 0.15394468600E+02 0.16193705306E+02 0.17058711035E+02 0.17960875774E+02 0.18870466678E+02
 0.19757392625E+02 0.20582982579E+02 0.21282813011E+02 0.21820268029E+02 0.22194086981E+02
 0.22423089657E+02 0.22530221671E+02 0.22530223568E+02 0.22423093459E+02 0.22194089196E+02
 0.21820267295E+02 0.21282810817E+02 0.20582980755E+02 0.19757391565E+02 0.18870466418E+02
 0.17960877251E+02 0.17058714758E+02 0.16193709445E+02 0.15394470218E+02 0.14686270645E+02
 0.14073813000E+02 0.13518459279E+02 0.12983385043E+02 0.12449594036E+02 0.11918463878E+02
 0.11407957473E+02 0.10944490934E+02 0.10553754743E+02 0.10253932348E+02 0.10053548167E+02
 0.99539263788E+01 0.99539263674E+01 0.10053548036E+02 0.10253932011E+02 0.10553754515E+02
 0.10944491434E+02 0.11078625198E+02 0.11549309941E+02 0.12055987134E+02 0.12601262332E+02
 0.13203066654E+02 0.13892970643E+02 0.14696605601E+02 0.15603562009E+02 0.16591354501E+02
 0.17633020584E+02 0.18698965503E+02 0.19757392625E+02 0.20763292566E+02 0.21634271793E+02
 0.22317863545E+02 0.22805864922E+02 0.23119216049E+02 0.23289560669E+02 0.23343030930E+02
 0.23289564225E+02 0.23119219614E+02 0.22805865788E+02 0.22317862432E+02 0.21634270611E+02
 0.20763291543E+02 0.19757391160E+02 0.18698964610E+02 0.17633022290E+02 0.16591358768E+02
 0.15603565992E+02 0.14696606657E+02 0.13892969048E+02 0.13203064665E+02 0.12601261444E+02
 0.12055987150E+02 0.11549310186E+02 0.11078625483E+02 0.10653300574E+02 0.10288206446E+02
 0.99970006081E+01 0.97878774565E+01 0.96631324526E+01 0.96218216399E+01 0.96631326186E+01
 0.97878776761E+01 0.99970006592E+01 0.10288206217E+02 0.10653300227E+02 0.10524788523E+02
 0.11001919889E+02 0.11544956981E+02 0.12173122925E+02 0.12914771807E+02 0.13782522044E+02
 0.14765885060E+02 0.15846065090E+02 0.16998779111E+02 0.18195858455E+02 0.19405430311E+02
 0.20582982579E+02 0.21634271793E+02 0.22484799201E+02 0.23111693066E+02 0.23531126817E+02
 0.23779059398E+02 0.23891946474E+02 0.23891948889E+02 0.23779064004E+02 0.23531129272E+02
 0.23111692608E+02 0.22484798090E+02 0.21634270922E+02 0.20582980708E+02 0.19405427508E+02
 0.18195857346E+02 0.16998781604E+02 0.15846069644E+02 0.14765888425E+02 0.13782522600E+02
 0.12914770265E+02 0.12173120805E+02 0.11544955577E+02 0.11001920047E+02 0.10524790121E+02
 0.10106034179E+02 0.97473065338E+01 0.94546054449E+01 0.92335177823E+01 0.90866131986E+01
 0.90136653479E+01 0.90136651484E+01 0.90866131160E+01 0.92335184056E+01 0.94546061502E+01
 0.97473060847E+01 0.10106032474E+02 0.98715540432E+01 0.10403964741E+02 0.11041690989E+02
 0.11807409552E+02 0.12705990813E+02 0.13731263534E+02 0.14868947566E+02 0.16098354610E+02
 0.17393818915E+02 0.18724832408E+02 0.20051895957E+02 0.21282813011E+02 0.22317863545E+02
 0.23111693066E+02 0.23667124857E+02 0.24017282054E+02 0.24204680520E+02 0.24262944235E+02
 0.24204683175E+02 0.24017284949E+02 0.23667125939E+02 0.23111692484E+02 0.22317862398E+02
 0.21282811364E+02 0.20051893249E+02 0.18724829451E+02 0.17393818033E+02 0.16098357147E+02
 0.14868952012E+02 0.13731266885E+02 0.12705991483E+02 0.11807408346E+02 0.11041689558E+02
 0.10403963914E+02 0.98715537629E+01 0.94232007150E+01 0.90470678308E+01 0.87390600777E+01
 0.84992537993E+01 0.83284854454E+01 0.82266354134E+01 0.81928460831E+01 0.82266355975E+01
 0.83284855619E+01 0.84992536261E+01 0.87390596844E+01 0.90470674991E+01 0.94232006444E+01
 0.92353441695E+01 0.98667136327E+01 0.10627745193E+02 0.11525090450E+02 0.12557798832E+02
 0.13716802959E+02 0.14985830625E+02 0.16342601740E+02 0.17759091371E+02 0.19200362193E+02
 0.20593758247E+02 0.21820268029E+02 0.22805864922E+02 0.23531126817E+02 0.24017282054E+02
 0.24305739973E+02 0.24437564364E+02 0.24437564594E+02 0.24305740867E+02 0.24017283609E+02
 0.23531128218E+02 0.22805865223E+02 0.21820266983E+02 0.20593755999E+02 0.19200358955E+02
 0.17759088185E+02 0.16342600714E+02 0.14985833034E+02 0.13716807331E+02 0.12557802140E+02
 0.11525091218E+02 0.10627744396E+02 0.98667125851E+01 0.92353429540E+01 0.87194766528E+01
 0.82984989613E+01 0.79577363839E+01 0.76895195651E+01 0.74904538313E+01 0.73588546450E+01
 0.72934695083E+01 0.72934700053E+01 0.73588552762E+01 0.74904533518E+01 0.76895183183E+01
 0.79577359232E+01 0.82984999384E+01 0.87194781787E+01 0.86971758121E+01 0.94287758868E+01
 0.10296771904E+02 0.11305403415E+02 0.12451265556E+02 0.13723217576E+02 0.15103132455E+02
 0.16566301879E+02 0.18080740912E+02 0.19597743076E+02 0.21003907479E+02 0.22194086981E+02
 0.23119216049E+02 0.23779059398E+02 0.24204680520E+02 0.24437564364E+02 0.24511004828E+02
 0.24437565058E+02 0.24204681943E+02 0.23779061432E+02 0.23119218172E+02 0.22194088197E+02
 0.21003906704E+02 0.19597739981E+02 0.18080736615E+02 0.16566298582E+02 0.15103131913E+02
 0.13723219661E+02 0.12451268428E+02 0.11305405218E+02 0.10296772209E+02 0.94287754819E+01
 0.86971754566E+01 0.80916954637E+01 0.75988365206E+01 0.72044755085E+01 0.68947125220E+01
 0.66601128297E+01 0.64954647195E+01 0.63978086224E+01 0.63654510751E+01 0.63978088060E+01
 0.64954648355E+01 0.66601127963E+01 0.68947125464E+01 0.72044757164E+01 0.75988367724E+01
 0.80916956845E+01 0.82559301568E+01 0.90723800209E+01 0.10030707055E+02 0.11133219136E+02
 0.12374433448E+02 0.13741081553E+02 0.15212460088E+02 0.16760144023E+02 0.18346665040E+02
 0.19895372988E+02 0.21281725293E+02 0.22423089657E+02 0.23289560669E+02 0.23891946474E+02
 0.24262944235E+02 0.24437564594E+02 0.24437565058E+02 0.24262945361E+02 0.23891948042E+02
 0.23289562984E+02 0.22423092575E+02 0.21281727225E+02 0.19895372033E+02 0.18346661270E+02
 0.16760139771E+02 0.15212457651E+02 0.13741081230E+02 0.12374434090E+02 0.11133219856E+02
 0.10030707757E+02 0.90723807688E+01 0.82559308765E+01 0.75724774291E+01 0.70090835193E+01
 0.65517878617E+01 0.61880563124E+01 0.59079569250E+01 0.57041325372E+01 0.55711703836E+01
 0.55055411635E+01 0.55055409780E+01 0.55711702521E+01 0.57041330293E+01 0.59079577774E+01
 0.61880567228E+01 0.65517875248E+01 0.70090828166E+01 0.75724767182E+01 0.78945095358E+01
 0.87830665408E+01 0.98181142399E+01 0.11000012244E+02 0.12320955343E+02 0.13764915652E+02
 0.15307621694E+02 0.16915901219E+02 0.18543557990E+02 0.20089258262E+02 0.21439594496E+02
 0.22530221671E+02 0.23343030930E+02 0.23891948889E+02 0.24204683175E+02 0.24305740867E+02
 0.24204681943E+02 0.23891948042E+02 0.23343031980E+02 0.22530224547E+02 0.21439597683E+02
 0.20089259984E+02 0.18543557284E+02 0.16915898459E+02 0.15307618413E+02 0.13764913551E+02
 0.12320955041E+02 0.11000012997E+02 0.98181149336E+01 0.87830667751E+01 0.78945096198E+01
 0.71449064083E+01 0.65218049602E+01 0.60108732746E+01 0.55986780527E+01 0.52743239207E+01
 0.50297486566E+01 0.48591842773E+01 0.47585595349E+01 0.47253155418E+01 0.47585597118E+01
 0.48591844580E+01 0.50297487097E+01 0.52743238704E+01 0.55986779470E+01 0.60108730724E+01
 0.65218046655E+01 0.71449061830E+01 0.76018952215E+01 0.85525114270E+01 0.96530019532E+01
 0.10901370373E+02 0.12286928566E+02 0.13790164991E+02 0.15382511598E+02 0.17025641098E+02
 0.18662927395E+02 0.20183933348E+02 0.21490464434E+02 0.22530223568E+02 0.23289564225E+02
 0.23779064004E+02 0.24017284949E+02 0.24017283609E+02 0.23779061432E+02 0.23289562984E+02
 0.22530224547E+02 0.21490466644E+02 0.20183935628E+02 0.18662929011E+02 0.17025641192E+02
 0.15382509713E+02 0.13790162363E+02 0.12286927443E+02 0.10901371398E+02 0.96530032934E+01
 0.85525111959E+01 0.76018937941E+01 0.67952839932E+01 0.61209719345E+01 0.55643815791E+01
 0.51111055341E+01 0.47490142357E+01 0.44689736301E+01 0.42644578538E+01 0.41308143451E+01
 0.40648432000E+01 0.40648435003E+01 0.41308146725E+01 0.42644574813E+01 0.44689729107E+01
 0.47490139404E+01 0.51111055618E+01 0.55643814075E+01 0.61209719349E+01 0.67952849646E+01
 0.73719454202E+01 0.83761830067E+01 0.95317531620E+01 0.10833797131E+02 0.12268242239E+02
 0.13811636987E+02 0.15430852926E+02 0.17082538663E+02 0.18702756340E+02 0.20183934209E+02
 0.21439597361E+02 0.22423093459E+02 0.23119219614E+02 0.23531129272E+02 0.23667125939E+02
 0.23531128218E+02 0.23119218172E+02 0.22423092575E+02 0.21439597683E+02 0.20183935628E+02
 0.18702757998E+02 0.17082539528E+02 0.15430852563E+02 0.13811635867E+02 0.12268241244E+02
 0.10833796735E+02 0.95317531345E+01 0.83761828711E+01 0.73719450443E+01 0.65153653634E+01
 0.57960049435E+01 0.51994875727E+01 0.47106719327E+01 0.43161759629E+01 0.40055788717E+01
 0.37713295792E+01 0.36080058962E+01 0.35116966227E+01 0.34798890889E+01 0.35116966969E+01
 0.36080058998E+01 0.37713294360E+01 0.40055786633E+01 0.43161757825E+01 0.47106717882E+01
 0.51994875004E+01 0.57960050737E+01 0.65153657292E+01 0.72006028761E+01 0.82503820285E+01
 0.94505149660E+01 0.10792945793E+02 0.12259976613E+02 0.13824080237E+02 0.15447616117E+02
 0.17082538911E+02 0.18662927965E+02 0.20089259575E+02 0.21281727881E+02 0.22194089196E+02
 0.22805865788E+02 0.23111692608E+02 0.23111692484E+02 0.22805865223E+02 0.22194088197E+02
 0.21281727225E+02 0.20089259984E+02 0.18662929011E+02 0.17082539528E+02 0.15447616030E+02
 0.13824080051E+02 0.12259976513E+02 0.10792945187E+02 0.94505137565E+01 0.82503812515E+01
 0.72006033651E+01 0.63001570602E+01 0.55404555040E+01 0.49079447898E+01 0.43872661488E+01
 0.39640662793E+01 0.36266615318E+01 0.33663413677E+01 0.31767644426E+01 0.30532257703E+01
 0.29923669749E+01 0.29923668315E+01 0.30532256988E+01 0.31767648039E+01 0.33663417377E+01
 0.36266613953E+01 0.39640660026E+01 0.43872663624E+01 0.49079451432E+01 0.55404550789E+01
 0.63001559717E+01 0.70836405014E+01 0.81706634491E+01 0.94046006160E+01 0.10774103419E+02
 0.12257803120E+02 0.13824079767E+02 0.15430852026E+02 0.17025640756E+02 0.18543557368E+02
 0.19895372621E+02 0.21003907342E+02 0.21820267295E+02 0.22317862432E+02 0.22484798090E+02
 0.22317862398E+02 0.21820266983E+02 0.21003906704E+02 0.19895372033E+02 0.18543557284E+02
 0.17025641192E+02 0.15430852563E+02 0.13824080051E+02 0.12257803211E+02 0.10774103577E+02
 0.94046008949E+01 0.81706636507E+01 0.70836404674E+01 0.61453896275E+01 0.53495981480E+01
 0.46841181388E+01 0.41339940643E+01 0.36843984641E+01 0.33226545859E+01 0.30389493882E+01
 0.28259765100E+01 0.26781986862E+01 0.25914048698E+01 0.25628054253E+01 0.25914049302E+01
 0.26781987669E+01 0.28259765758E+01 0.30389494479E+01 0.33226546746E+01 0.36843985917E+01
 0.41339942146E+01 0.46841183190E+01 0.53495983756E+01 0.61453898354E+01 0.70162471674E+01
 0.81323524059E+01 0.93898557508E+01 0.10774102986E+02 0.12259976215E+02 0.13811635403E+02
 0.15382509285E+02 0.16915898604E+02 0.18346661980E+02 0.19597740581E+02 0.20593755925E+02
 0.21282810817E+02 0.21634270611E+02 0.21634270922E+02 0.21282811364E+02 0.20593755999E+02
 0.19597739981E+02 0.18346661270E+02 0.16915898459E+02 0.15382509713E+02 0.13811635867E+02
 0.12259976513E+02 0.10774103577E+02 0.93898569475E+01 0.81323535808E+01 0.70162472956E+01
 0.60463133238E+01 0.52186943875E+01 0.45230351414E+01 0.39453189845E+01 0.34707894466E+01
 0.30861917103E+01 0.27808366952E+01 0.25465360049E+01 0.23769551945E+01 0.22670752392E+01
 0.22131637024E+01 0.22131638457E+01 0.22670753934E+01 0.23769550333E+01 0.25465357642E+01
 0.27808367881E+01 0.30861919855E+01 0.34707894350E+01 0.39453188169E+01 0.45230355482E+01
 0.52186955646E+01 0.60463143590E+01 0.69943256188E+01 0.81323533777E+01 0.94046008267E+01
 0.10792945318E+02 0.12268241450E+02 0.13790162416E+02 0.15307618204E+02 0.16760139416E+02
 0.18080736327E+02 0.19200358845E+02 0.20051893271E+02 0.20582980755E+02 0.20763291543E+02
 0.20582980708E+02 0.20051893249E+02 0.19200358955E+02 0.18080736615E+02 0.16760139771E+02
 0.15307618413E+02 0.13790162363E+02 0.12268241244E+02 0.10792945187E+02 0.94046008949E+01
 0.81323535808E+01 0.69943258211E+01 0.59982646503E+01 0.51428251571E+01 0.44196244751E+01
 0.38159302175E+01 0.33175020404E+01 0.29109284276E+01 0.25849463016E+01 0.23306575446E+01
 0.21410344053E+01 0.20103486591E+01 0.19340180941E+01 0.19089447248E+01 0.19340181657E+01
 0.20103487494E+01 0.21410344500E+01 0.23306575195E+01 0.25849462353E+01 0.29109283622E+01
 0.33175019876E+01 0.38159301629E+01 0.44196244085E+01 0.51428250697E+01 0.59982645139E+01
 0.70162472580E+01 0.81706646975E+01 0.94505152055E+01 0.10833797770E+02 0.12286927808E+02
 0.13764913392E+02 0.15212457068E+02 0.16566297722E+02 0.17759087562E+02 0.18724829593E+02
 0.19405428216E+02 0.19757391565E+02 0.19757391160E+02 0.19405427508E+02 0.18724829451E+02
 0.17759088185E+02 0.16566298582E+02 0.15212457651E+02 0.13764913551E+02 0.12286927443E+02
 0.10833796735E+02 0.94505137565E+01 0.81706636507E+01 0.70162472956E+01 0.59982646503E+01
 0.51180442594E+01 0.43693114867E+01 0.37408213082E+01 0.32191417570E+01 0.27910295042E+01
 0.24449230992E+01 0.21714011110E+01 0.19628677046E+01 0.18130081101E+01 0.17165318252E+01
 0.16694088734E+01 0.16694088918E+01 0.17165318737E+01 0.18130081842E+01 0.19628677889E+01
 0.21714011281E+01 0.24449229680E+01 0.27910292873E+01 0.32191416005E+01 0.37408211366E+01
 0.43693109545E+01 0.51180432507E+01 0.59982637171E+01 0.70836404873E+01 0.82503813409E+01
 0.95317533942E+01 0.10901371848E+02 0.12320955541E+02 0.13741081551E+02 0.15103131918E+02
 0.16342600469E+02 0.17393817737E+02 0.18195857153E+02 0.18698964538E+02 0.18870466418E+02
 0.18698964610E+02 0.18195857346E+02 0.17393818033E+02 0.16342600714E+02 0.15103131913E+02
 0.13741081230E+02 0.12320955041E+02 0.10901371398E+02 0.95317531345E+01 0.82503812515E+01
 0.70836404674E+01 0.60463133238E+01 0.51428251571E+01 0.43693114867E+01 0.37162511743E+01
 0.31712473078E+01 0.27214503121E+01 0.23551934937E+01 0.20626657696E+01 0.18357924246E+01
 0.16677681069E+01 0.15527357776E+01 0.14858980501E+01 0.14640055890E+01 0.14858980051E+01
 0.15527357033E+01 0.16677680229E+01 0.18357923480E+01 0.20626657125E+01 0.23551934552E+01
 0.27214502732E+01 0.31712472503E+01 0.37162511084E+01 0.43693114453E+01 0.51428251537E+01
 0.60463133363E+01 0.72006026459E+01 0.83761813011E+01 0.96530023841E+01 0.11000013476E+02
 0.12374435308E+02 0.13723220583E+02 0.14985833248E+02 0.16098356818E+02 0.16998780996E+02
 0.17633021681E+02 0.17960876987E+02 0.17960877251E+02 0.17633022290E+02 0.16998781604E+02
 0.16098357147E+02 0.14985833034E+02 0.13723219661E+02 0.12374434090E+02 0.11000012997E+02
 0.96530032934E+01 0.83761828711E+01 0.72006033651E+01 0.61453896275E+01 0.52186943875E+01
 0.44196244751E+01 0.37408213082E+01 0.31712473078E+01 0.26986790307E+01 0.23114937529E+01
 0.19995607404E+01 0.17543438701E+01 0.15685698925E+01 0.14359016736E+01 0.13509348926E+01
 0.13095730894E+01 0.13095729892E+01 0.13509347516E+01 0.14359016581E+01 0.15685698520E+01
 0.17543436724E+01 0.19995606476E+01 0.23114940265E+01 0.26986793830E+01 0.31712473041E+01
 0.37408212203E+01 0.44196250537E+01 0.52186956129E+01 0.61453903473E+01 0.73719450799E+01
 0.85525111789E+01 0.98181149384E+01 0.11133219944E+02 0.12451268591E+02 0.13716807476E+02
 0.14868952013E+02 0.15846069438E+02 0.16591358441E+02 0.17058714509E+02 0.17217996606E+02
 0.17058714758E+02 0.16591358768E+02 0.15846069644E+02 0.14868952012E+02 0.13716807331E+02
 0.12451268428E+02 0.11133219856E+02 0.98181149336E+01 0.85525111959E+01 0.73719450443E+01
 0.63001570602E+01 0.53495981480E+01 0.45230351414E+01 0.38159302175E+01 0.32191417570E+01
 0.27214503121E+01 0.23114937529E+01 0.19788954906E+01 0.17146301997E+01 0.15108966558E+01
 0.13608672188E+01 0.12586222994E+01 0.11993933288E+01 0.11800211725E+01 0.11993932931E+01
 0.12586222726E+01 0.13608672512E+01 0.15108967617E+01 0.17146303449E+01 0.19788956144E+01
 0.23114938081E+01 0.27214502998E+01 0.32191417319E+01 0.38159302493E+01 0.45230352557E+01
 0.53495983012E+01 0.63001571758E+01 0.76018949141E+01 0.87830677060E+01 0.10030707618E+02
 0.11305404258E+02 0.12557801374E+02 0.13731266901E+02 0.14765888850E+02 0.15603566144E+02
 0.16193709203E+02 0.16498787428E+02 0.16498787608E+02 0.16193709445E+02 0.15603565992E+02
 0.14765888425E+02 0.13731266885E+02 0.12557802140E+02 0.11305405218E+02 0.10030707757E+02
 0.87830667751E+01 0.76018937941E+01 0.65153653634E+01 0.55404555040E+01 0.46841181388E+01
 0.39453189845E+01 0.33175020404E+01 0.27910295042E+01 0.23551934937E+01 0.19995607404E+01
 0.17146301997E+01 0.14919815951E+01 0.13241980895E+01 0.12048281208E+01 0.11285344417E+01
 0.10914235493E+01 0.10914235636E+01 0.11285344255E+01 0.12048280655E+01 0.13241981764E+01
 0.14919819190E+01 0.17146304878E+01 0.19995606497E+01 0.23551931329E+01 0.27910293147E+01
 0.33175021062E+01 0.39453188418E+01 0.46841175136E+01 0.55404549335E+01 0.65153656543E+01
 0.78945092710E+01 0.90723803000E+01 0.10296771743E+02 0.11525090876E+02 0.12705991338E+02
 0.13782522643E+02 0.14696606806E+02 0.15394470371E+02 0.15832360939E+02 0.15981646899E+02
 0.15832360850E+02 0.15394470218E+02 0.14696606657E+02 0.13782522600E+02 0.12705991483E+02
 0.11525091218E+02 0.10296772209E+02 0.90723807688E+01 0.78945096198E+01 0.67952839932E+01
 0.57960049435E+01 0.49079447898E+01 0.41339940643E+01 0.34707894466E+01 0.29109284276E+01
 0.24449230992E+01 0.20626657696E+01 0.17543438701E+01 0.15108966558E+01 0.13241980895E+01
 0.11871560918E+01 0.10938556077E+01 0.10397823059E+01 0.10220838581E+01 0.10397822445E+01
 0.10938555370E+01 0.11871560660E+01 0.13241981198E+01 0.15108967075E+01 0.17543438915E+01
 0.20626657278E+01 0.24449230095E+01 0.29109283569E+01 0.34707894695E+01 0.41339941925E+01
 0.49079449411E+01 0.57960049893E+01 0.67952838428E+01 0.82559299041E+01 0.94287746730E+01
 0.10627744204E+02 0.11807408538E+02 0.12914770332E+02 0.13892968940E+02 0.14686270726E+02
 0.15245620536E+02 0.15534805577E+02 0.15534805364E+02 0.15245620185E+02 0.14686270645E+02
 0.13892969048E+02 0.12914770265E+02 0.11807408346E+02 0.10627744396E+02 0.94287754819E+01
 0.82559308765E+01 0.71449064083E+01 0.61209719345E+01 0.51994875727E+01 0.43872661488E+01
 0.36843984641E+01 0.30861917103E+01 0.25849463016E+01 0.21714011110E+01 0.18357924246E+01
 0.15685698925E+01 0.13608672188E+01 0.12048281208E+01 0.10938556077E+01 0.10228137549E+01
 0.98818613922E+00 0.98818613763E+00 0.10228137301E+01 0.10938555416E+01 0.12048280347E+01
 0.13608671286E+01 0.15685697890E+01 0.18357923472E+01 0.21714011595E+01 0.25849464977E+01
 0.30861919340E+01 0.36843986324E+01 0.43872663509E+01 0.51994878487E+01 0.61209720029E+01
 0.71449059014E+01 0.86971756415E+01 0.98667128369E+01 0.11041689764E+02 0.12173120887E+02
 0.13203064629E+02 0.14073812919E+02 0.14735068095E+02 0.15148075899E+02 0.15288505790E+02
 0.15148075922E+02 0.14735068155E+02 0.14073813000E+02 0.13203064665E+02 0.12173120805E+02
 0.11041689558E+02 0.98667125851E+01 0.86971754566E+01 0.75724774291E+01 0.65218049602E+01
 0.55643815791E+01 0.47106719327E+01 0.39640662793E+01 0.33226545859E+01 0.27808366952E+01
 0.23306575446E+01 0.19628677046E+01 0.16677681069E+01 0.14359016736E+01 0.12586222994E+01
 0.11285344417E+01 0.10397823059E+01 0.98818613922E+00 0.97126132879E+00 0.98818617645E+00
 0.10397823453E+01 0.11285344370E+01 0.12586222276E+01 0.14359015560E+01 0.16677679973E+01
 0.19628676506E+01 0.23306575533E+01 0.27808367314E+01 0.33226545997E+01 0.39640662369E+01
 0.47106718340E+01 0.55643814629E+01 0.65218048954E+01 0.75724774820E+01 0.92353441661E+01
 0.10403965286E+02 0.11544956226E+02 0.12601261183E+02 0.13518458620E+02 0.14249362469E+02
 0.14757225810E+02 0.15017320139E+02 0.15017320164E+02 0.14757225992E+02 0.14249362965E+02
 0.13518459279E+02 0.12601261444E+02 0.11544955577E+02 0.10403963914E+02 0.92353429540E+01
 0.80916954637E+01 0.70090835193E+01 0.60108732746E+01 0.51111055341E+01 0.43161759629E+01
 0.36266615318E+01 0.30389493882E+01 0.25465360049E+01 0.21410344053E+01 0.18130081101E+01
 0.15527357776E+01 0.13509348926E+01 0.11993933288E+01 0.10914235493E+01 0.10220838581E+01
 0.98818613763E+00 0.98818617645E+00 0.10220839796E+01 0.10914236874E+01 0.11993933248E+01
 0.13509347187E+01 0.15527356537E+01 0.18130081991E+01 0.21410344990E+01 0.25465357837E+01
 0.30389489523E+01 0.36266613418E+01 0.43161761650E+01 0.51111056844E+01 0.60108729880E+01