   2   2   1   0
  0.2254527E+02  0.3995153E-09  0.3995153E-09  0.3995153E-09  0.5000000E-15
  1.000000000000000E-004
  CAR 
 Name                                    
     13.12379053    -11.07279524  301      2.38655560      1.00000000
    -11.073  0.0000E+00  0.0000E+00
    -10.992  0.0000E+00  0.0000E+00
    -10.911  0.0000E+00  0.0000E+00
    -10.831  0.0000E+00  0.0000E+00
    -10.750  0.0000E+00  0.0000E+00
    -10.670  0.0000E+00  0.0000E+00
    -10.589  0.0000E+00  0.0000E+00
    -10.508  0.0000E+00  0.0000E+00
    -10.428  0.0000E+00  0.0000E+00
    -10.347  0.0000E+00  0.0000E+00
    -10.266  0.0000E+00  0.0000E+00
    -10.186  0.0000E+00  0.0000E+00
    -10.105  0.0000E+00  0.0000E+00
    -10.024  0.7577E-15  0.6111E-16
     -9.944  0.3874E-02  0.3125E-03
     -9.863  0.0000E+00  0.3125E-03
     -9.782  0.0000E+00  0.3125E-03
     -9.702  0.0000E+00  0.3125E-03
     -9.621  0.0000E+00  0.3125E-03
     -9.540  0.0000E+00  0.3125E-03
     -9.460  0.0000E+00  0.3125E-03
     -9.379  0.1625E-01  0.1623E-02
     -9.298  0.0000E+00  0.2812E-02
     -9.218  0.1326E-12  0.2813E-02
     -9.137  0.2325E-01  0.4687E-02
     -9.056  0.0000E+00  0.4687E-02
     -8.976  0.0000E+00  0.4687E-02
     -8.895  0.0000E+00  0.4687E-02
     -8.814  0.0000E+00  0.4687E-02
     -8.734  0.0000E+00  0.4687E-02
     -8.653  0.0000E+00  0.4687E-02
     -8.572  0.7815E-02  0.5318E-02
     -8.492  0.3911E-01  0.8473E-02
     -8.411  0.1506E-01  0.9687E-02
     -8.331  0.0000E+00  0.9687E-02
     -8.250  0.1298E-07  0.9688E-02
     -8.169  0.9299E-01  0.1719E-01
     -8.089  0.0000E+00  0.1719E-01
     -8.008  0.0000E+00  0.1719E-01
     -7.927  0.0000E+00  0.1719E-01
     -7.847  0.2847E-04  0.1719E-01
     -7.766  0.3484E-01  0.2000E-01
     -7.685  0.0000E+00  0.2000E-01
     -7.605  0.0000E+00  0.2000E-01
     -7.524  0.0000E+00  0.2000E-01
     -7.443  0.0000E+00  0.2000E-01
     -7.363  0.0000E+00  0.2000E-01
     -7.282  0.0000E+00  0.2000E-01
     -7.201  0.0000E+00  0.2000E-01
     -7.121  0.0000E+00  0.2000E-01
     -7.040  0.0000E+00  0.2000E-01
     -6.959  0.0000E+00  0.2000E-01
     -6.879  0.0000E+00  0.2000E-01
     -6.798  0.0000E+00  0.2000E-01
     -6.717  0.0000E+00  0.2000E-01
     -6.637  0.0000E+00  0.2000E-01
     -6.556  0.0000E+00  0.2000E-01
     -6.475  0.0000E+00  0.2000E-01
     -6.395  0.0000E+00  0.2000E-01
     -6.314  0.0000E+00  0.2000E-01
     -6.233  0.0000E+00  0.2000E-01
     -6.153  0.0000E+00  0.2000E-01
     -6.072  0.0000E+00  0.2000E-01
     -5.992  0.0000E+00  0.2000E-01
     -5.911  0.0000E+00  0.2000E-01
     -5.830  0.0000E+00  0.2000E-01
     -5.750  0.0000E+00  0.2000E-01
     -5.669  0.0000E+00  0.2000E-01
     -5.588  0.0000E+00  0.2000E-01
     -5.508  0.0000E+00  0.2000E-01
     -5.427  0.0000E+00  0.2000E-01
     -5.346  0.0000E+00  0.2000E-01
     -5.266  0.0000E+00  0.2000E-01
     -5.185  0.0000E+00  0.2000E-01
     -5.104  0.0000E+00  0.2000E-01
     -5.024  0.0000E+00  0.2000E-01
     -4.943  0.0000E+00  0.2000E-01
     -4.862  0.0000E+00  0.2000E-01
     -4.782  0.0000E+00  0.2000E-01
     -4.701  0.0000E+00  0.2000E-01
     -4.620  0.0000E+00  0.2000E-01
     -4.540  0.0000E+00  0.2000E-01
     -4.459  0.0000E+00  0.2000E-01
     -4.378  0.0000E+00  0.2000E-01
     -4.298  0.0000E+00  0.2000E-01
     -4.217  0.1119E-01  0.2090E-01
     -4.136  0.0000E+00  0.2094E-01
     -4.056  0.1443E-01  0.2210E-01
     -3.975  0.1550E-01  0.2406E-01
     -3.894  0.0000E+00  0.2406E-01
     -3.814  0.0000E+00  0.2406E-01
     -3.733  0.8152E-02  0.2472E-01
     -3.653  0.8484E-01  0.3156E-01
     -3.572  0.0000E+00  0.3156E-01
     -3.491  0.0000E+00  0.3156E-01
     -3.411  0.0000E+00  0.3156E-01
     -3.330  0.0000E+00  0.3156E-01
     -3.249  0.0000E+00  0.3156E-01
     -3.169  0.1635E-02  0.3169E-01
     -3.088  0.4486E-01  0.3531E-01
     -3.007  0.0000E+00  0.3531E-01
     -2.927  0.0000E+00  0.3531E-01
     -2.846  0.0000E+00  0.3531E-01
     -2.765  0.0000E+00  0.3531E-01
     -2.685  0.0000E+00  0.3531E-01
     -2.604  0.0000E+00  0.3531E-01
     -2.523  0.0000E+00  0.3531E-01
     -2.443  0.0000E+00  0.3531E-01
     -2.362  0.0000E+00  0.3531E-01
     -2.281  0.0000E+00  0.3531E-01
     -2.201  0.0000E+00  0.3531E-01
     -2.120  0.0000E+00  0.3531E-01
     -2.039  0.0000E+00  0.3531E-01
     -1.959  0.0000E+00  0.3531E-01
     -1.878  0.0000E+00  0.3531E-01
     -1.797  0.4692E-14  0.3531E-01
     -1.717  0.4341E-01  0.3881E-01
     -1.636  0.0000E+00  0.3969E-01
     -1.555  0.0000E+00  0.3969E-01
     -1.475  0.0000E+00  0.3969E-01
     -1.394  0.0000E+00  0.3969E-01
     -1.314  0.0000E+00  0.3969E-01
     -1.233  0.0000E+00  0.3969E-01
     -1.152  0.0000E+00  0.3969E-01
     -1.072  0.0000E+00  0.3969E-01
     -0.991  0.2473E-07  0.3969E-01
     -0.910  0.2325E-01  0.4156E-01
     -0.830  0.1184E-06  0.4156E-01
     -0.749  0.6282E-01  0.4663E-01
     -0.668  0.9275E-01  0.5467E-01
     -0.588  0.0000E+00  0.5469E-01
     -0.507  0.0000E+00  0.5469E-01
     -0.426  0.0000E+00  0.5469E-01
     -0.346  0.0000E+00  0.5469E-01
     -0.265  0.0000E+00  0.5469E-01
     -0.184  0.3246E-06  0.5469E-01
     -0.104  0.2325E-01  0.5656E-01
     -0.023  0.0000E+00  0.5656E-01
      0.058  0.0000E+00  0.5656E-01
      0.138  0.0000E+00  0.5656E-01
      0.219  0.0000E+00  0.5656E-01
      0.300  0.0000E+00  0.5656E-01
      0.380  0.5678E-16  0.5656E-01
      0.461  0.9296E-01  0.6406E-01
      0.542  0.0000E+00  0.6406E-01
      0.622  0.0000E+00  0.6406E-01
      0.703  0.2581E-17  0.6406E-01
      0.784  0.4644E-01  0.6781E-01
      0.864  0.0000E+00  0.6781E-01
      0.945  0.0000E+00  0.6781E-01
      1.025  0.0000E+00  0.6781E-01
      1.106  0.0000E+00  0.6781E-01
      1.187  0.7199E-02  0.6839E-01
      1.267  0.5969E-01  0.7321E-01
      1.348  0.0000E+00  0.7406E-01
      1.429  0.0000E+00  0.7406E-01
      1.509  0.0000E+00  0.7406E-01
      1.590  0.0000E+00  0.7406E-01
      1.671  0.1514E-04  0.7406E-01
      1.751  0.6198E-01  0.7906E-01
      1.832  0.0000E+00  0.7906E-01
      1.913  0.0000E+00  0.7906E-01
      1.993  0.0000E+00  0.7906E-01
      2.074  0.0000E+00  0.7906E-01
      2.155  0.0000E+00  0.7906E-01
      2.235  0.0000E+00  0.7906E-01
      2.316  0.3940E-02  0.7938E-01
      2.397  0.7684E-02  0.8000E-01
      2.477  0.3875E-02  0.8031E-01
      2.558  0.0000E+00  0.8031E-01
      2.639  0.0000E+00  0.8031E-01
      2.719  0.0000E+00  0.8031E-01
      2.800  0.0000E+00  0.8031E-01
      2.881  0.0000E+00  0.8031E-01
      2.961  0.0000E+00  0.8031E-01
      3.042  0.0000E+00  0.8031E-01
      3.123  0.6558E-12  0.8031E-01
      3.203  0.1550E-01  0.8156E-01
      3.284  0.0000E+00  0.8156E-01
      3.365  0.0000E+00  0.8156E-01
      3.445  0.0000E+00  0.8156E-01
      3.526  0.0000E+00  0.8156E-01
      3.606  0.3066E-01  0.8404E-01
      3.687  0.0000E+00  0.8406E-01
      3.768  0.0000E+00  0.8406E-01
      3.848  0.6028E-05  0.8406E-01
      3.929  0.1162E-01  0.8500E-01
      4.010  0.1112E-01  0.8590E-01
      4.090  0.0000E+00  0.8594E-01
      4.171  0.0000E+00  0.8594E-01
      4.252  0.0000E+00  0.8594E-01
      4.332  0.1993E-01  0.8755E-01
      4.413  0.0000E+00  0.8781E-01
      4.494  0.5192E-02  0.8823E-01
      4.574  0.8780E-01  0.9531E-01
      4.655  0.0000E+00  0.9531E-01
      4.736  0.0000E+00  0.9531E-01
      4.816  0.0000E+00  0.9531E-01
      4.897  0.1198E-02  0.9541E-01
      4.978  0.4530E-01  0.9906E-01
      5.058  0.0000E+00  0.9906E-01
      5.139  0.0000E+00  0.9906E-01
      5.220  0.0000E+00  0.9906E-01
      5.300  0.0000E+00  0.9906E-01
      5.381  0.9302E-13  0.9906E-01
      5.462  0.2325E-01  0.1009E+00
      5.542  0.0000E+00  0.1009E+00
      5.623  0.0000E+00  0.1009E+00
      5.704  0.0000E+00  0.1009E+00
      5.784  0.0000E+00  0.1009E+00
      5.865  0.0000E+00  0.1009E+00
      5.945  0.0000E+00  0.1009E+00
      6.026  0.7447E-02  0.1015E+00
      6.107  0.0000E+00  0.1019E+00
      6.187  0.0000E+00  0.1019E+00
      6.268  0.0000E+00  0.1019E+00
      6.349  0.0000E+00  0.1019E+00
      6.429  0.0000E+00  0.1019E+00
      6.510  0.0000E+00  0.1019E+00
      6.591  0.0000E+00  0.1019E+00
      6.671  0.5629E-02  0.1023E+00
      6.752  0.1762E-01  0.1037E+00
      6.833  0.1714E-01  0.1051E+00
      6.913  0.1426E+00  0.1166E+00
      6.994  0.2789E-01  0.1189E+00
      7.075  0.2160E-01  0.1206E+00
      7.155  0.0000E+00  0.1206E+00
      7.236  0.0000E+00  0.1206E+00
      7.317  0.0000E+00  0.1206E+00
      7.397  0.0000E+00  0.1206E+00
      7.478  0.5807E-16  0.1206E+00
      7.559  0.2324E-01  0.1225E+00
      7.639  0.0000E+00  0.1225E+00
      7.720  0.2581E-16  0.1225E+00
      7.801  0.4648E-01  0.1262E+00
      7.881  0.4649E-01  0.1300E+00
      7.962  0.1199E-04  0.1300E+00
      8.043  0.7748E-01  0.1362E+00
      8.123  0.0000E+00  0.1363E+00
      8.204  0.0000E+00  0.1363E+00
      8.284  0.4088E-12  0.1363E+00
      8.365  0.2325E-01  0.1381E+00
      8.446  0.9298E-01  0.1456E+00
      8.526  0.0000E+00  0.1456E+00
      8.607  0.0000E+00  0.1456E+00
      8.688  0.1764E-05  0.1456E+00
      8.768  0.4649E-01  0.1494E+00
      8.849  0.0000E+00  0.1494E+00
      8.930  0.0000E+00  0.1494E+00
      9.010  0.0000E+00  0.1494E+00
      9.091  0.4977E-01  0.1534E+00
      9.172  0.0000E+00  0.1569E+00
      9.252  0.0000E+00  0.1569E+00
      9.333  0.0000E+00  0.1569E+00
      9.414  0.0000E+00  0.1569E+00
      9.494  0.0000E+00  0.1569E+00
      9.575  0.0000E+00  0.1569E+00
      9.656  0.0000E+00  0.1569E+00
      9.736  0.0000E+00  0.1569E+00
      9.817  0.0000E+00  0.1569E+00
      9.898  0.0000E+00  0.1569E+00
      9.978  0.7132E-04  0.1569E+00
     10.059  0.1543E-01  0.1581E+00
     10.140  0.0000E+00  0.1581E+00
     10.220  0.0000E+00  0.1581E+00
     10.301  0.0000E+00  0.1581E+00
     10.382  0.0000E+00  0.1581E+00
     10.462  0.0000E+00  0.1581E+00
     10.543  0.0000E+00  0.1581E+00
     10.623  0.0000E+00  0.1581E+00
     10.704  0.0000E+00  0.1581E+00
     10.785  0.0000E+00  0.1581E+00
     10.865  0.0000E+00  0.1581E+00
     10.946  0.0000E+00  0.1581E+00
     11.027  0.0000E+00  0.1581E+00
     11.107  0.0000E+00  0.1581E+00
     11.188  0.0000E+00  0.1581E+00
     11.269  0.0000E+00  0.1581E+00
     11.349  0.0000E+00  0.1581E+00
     11.430  0.0000E+00  0.1581E+00
     11.511  0.0000E+00  0.1581E+00
     11.591  0.0000E+00  0.1581E+00
     11.672  0.0000E+00  0.1581E+00
     11.753  0.0000E+00  0.1581E+00
     11.833  0.0000E+00  0.1581E+00
     11.914  0.0000E+00  0.1581E+00
     11.995  0.3903E-06  0.1581E+00
     12.075  0.2325E-01  0.1600E+00
     12.156  0.0000E+00  0.1600E+00
     12.237  0.0000E+00  0.1600E+00
     12.317  0.0000E+00  0.1600E+00
     12.398  0.0000E+00  0.1600E+00
     12.479  0.0000E+00  0.1600E+00
     12.559  0.0000E+00  0.1600E+00
     12.640  0.0000E+00  0.1600E+00
     12.721  0.0000E+00  0.1600E+00
     12.801  0.0000E+00  0.1600E+00
     12.882  0.0000E+00  0.1600E+00
     12.962  0.0000E+00  0.1600E+00
     13.043  0.0000E+00  0.1600E+00
     13.124  0.0000E+00  0.1600E+00
     13.12379053    -11.07279524  301      2.38655560      1.00000000
    -11.073  0.0000E+00  0.0000E+00  0.0000E+00
    -10.992  0.0000E+00  0.0000E+00  0.0000E+00
    -10.911  0.0000E+00  0.0000E+00  0.0000E+00
    -10.831  0.0000E+00  0.0000E+00  0.0000E+00
    -10.750  0.0000E+00  0.0000E+00  0.0000E+00
    -10.670  0.0000E+00  0.0000E+00  0.0000E+00
    -10.589  0.0000E+00  0.0000E+00  0.0000E+00
    -10.508  0.0000E+00  0.0000E+00  0.0000E+00
    -10.428  0.0000E+00  0.0000E+00  0.0000E+00
    -10.347  0.0000E+00  0.0000E+00  0.0000E+00
    -10.266  0.0000E+00  0.0000E+00  0.0000E+00
    -10.186  0.0000E+00  0.0000E+00  0.0000E+00
    -10.105  0.0000E+00  0.0000E+00  0.0000E+00
    -10.024  0.1776E-13  0.1357E-29  0.4886E-32
     -9.944  0.9083E-01  0.6938E-17  0.2498E-19
     -9.863  0.0000E+00  0.0000E+00  0.0000E+00
     -9.782  0.0000E+00  0.0000E+00  0.0000E+00
     -9.702  0.0000E+00  0.0000E+00  0.0000E+00
     -9.621  0.0000E+00  0.0000E+00  0.0000E+00
     -9.540  0.0000E+00  0.0000E+00  0.0000E+00
     -9.460  0.0000E+00  0.0000E+00  0.0000E+00
     -9.379  0.3180E+00  0.3024E-01  0.4384E-02
     -9.298  0.0000E+00  0.0000E+00  0.0000E+00
     -9.218  0.2367E-11  0.3545E-12  0.4726E-13
     -9.137  0.4151E+00  0.6217E-01  0.8288E-02
     -9.056  0.0000E+00  0.0000E+00  0.0000E+00
     -8.976  0.0000E+00  0.0000E+00  0.0000E+00
     -8.895  0.0000E+00  0.0000E+00  0.0000E+00
     -8.814  0.0000E+00  0.0000E+00  0.0000E+00
     -8.734  0.0000E+00  0.0000E+00  0.0000E+00
     -8.653  0.0000E+00  0.0000E+00  0.0000E+00
     -8.572  0.9561E-01  0.3596E-01  0.6309E-02
     -8.492  0.4781E+00  0.1800E+00  0.3165E-01
     -8.411  0.1687E+00  0.6988E-01  0.1455E-01
     -8.331  0.0000E+00  0.0000E+00  0.0000E+00
     -8.250  0.9767E-07  0.7961E-07  0.1435E-07
     -8.169  0.6998E+00  0.5704E+00  0.1028E+00
     -8.089  0.0000E+00  0.0000E+00  0.0000E+00
     -8.008  0.0000E+00  0.0000E+00  0.0000E+00
     -7.927  0.0000E+00  0.0000E+00  0.0000E+00
     -7.847  0.9621E-19  0.2475E-03  0.4066E-04
     -7.766  0.1298E-15  0.2940E+00  0.5309E-01
     -7.685  0.0000E+00  0.0000E+00  0.0000E+00
     -7.605  0.0000E+00  0.0000E+00  0.0000E+00
     -7.524  0.0000E+00  0.0000E+00  0.0000E+00
     -7.443  0.0000E+00  0.0000E+00  0.0000E+00
     -7.363  0.0000E+00  0.0000E+00  0.0000E+00
     -7.282  0.0000E+00  0.0000E+00  0.0000E+00
     -7.201  0.0000E+00  0.0000E+00  0.0000E+00
     -7.121  0.0000E+00  0.0000E+00  0.0000E+00
     -7.040  0.0000E+00  0.0000E+00  0.0000E+00
     -6.959  0.0000E+00  0.0000E+00  0.0000E+00
     -6.879  0.0000E+00  0.0000E+00  0.0000E+00
     -6.798  0.0000E+00  0.0000E+00  0.0000E+00
     -6.717  0.0000E+00  0.0000E+00  0.0000E+00
     -6.637  0.0000E+00  0.0000E+00  0.0000E+00
     -6.556  0.0000E+00  0.0000E+00  0.0000E+00
     -6.475  0.0000E+00  0.0000E+00  0.0000E+00
     -6.395  0.0000E+00  0.0000E+00  0.0000E+00
     -6.314  0.0000E+00  0.0000E+00  0.0000E+00
     -6.233  0.0000E+00  0.0000E+00  0.0000E+00
     -6.153  0.0000E+00  0.0000E+00  0.0000E+00
     -6.072  0.0000E+00  0.0000E+00  0.0000E+00
     -5.992  0.0000E+00  0.0000E+00  0.0000E+00
     -5.911  0.0000E+00  0.0000E+00  0.0000E+00
     -5.830  0.0000E+00  0.0000E+00  0.0000E+00
     -5.750  0.0000E+00  0.0000E+00  0.0000E+00
     -5.669  0.0000E+00  0.0000E+00  0.0000E+00
     -5.588  0.0000E+00  0.0000E+00  0.0000E+00
     -5.508  0.0000E+00  0.0000E+00  0.0000E+00
     -5.427  0.0000E+00  0.0000E+00  0.0000E+00
     -5.346  0.0000E+00  0.0000E+00  0.0000E+00
     -5.266  0.0000E+00  0.0000E+00  0.0000E+00
     -5.185  0.0000E+00  0.0000E+00  0.0000E+00
     -5.104  0.0000E+00  0.0000E+00  0.0000E+00
     -5.024  0.0000E+00  0.0000E+00  0.0000E+00
     -4.943  0.0000E+00  0.0000E+00  0.0000E+00
     -4.862  0.0000E+00  0.0000E+00  0.0000E+00
     -4.782  0.0000E+00  0.0000E+00  0.0000E+00
     -4.701  0.0000E+00  0.0000E+00  0.0000E+00
     -4.620  0.0000E+00  0.0000E+00  0.0000E+00
     -4.540  0.0000E+00  0.0000E+00  0.0000E+00
     -4.459  0.0000E+00  0.0000E+00  0.0000E+00
     -4.378  0.0000E+00  0.0000E+00  0.0000E+00
     -4.298  0.0000E+00  0.0000E+00  0.0000E+00
     -4.217  0.6177E+00  0.1586E-15  0.3996E-02
     -4.136  0.0000E+00  0.0000E+00  0.0000E+00
     -4.056  0.8476E+00  0.9940E-15  0.1005E-02
     -3.975  0.5344E+00  0.1372E+00  0.3640E-03
     -3.894  0.0000E+00  0.0000E+00  0.0000E+00
     -3.814  0.0000E+00  0.0000E+00  0.0000E+00
     -3.733  0.3700E+00  0.3350E-01  0.3899E-02
     -3.653  0.3850E+01  0.3486E+00  0.4058E-01
     -3.572  0.0000E+00  0.0000E+00  0.0000E+00
     -3.491  0.0000E+00  0.0000E+00  0.0000E+00
     -3.411  0.0000E+00  0.0000E+00  0.0000E+00
     -3.330  0.0000E+00  0.0000E+00  0.0000E+00
     -3.249  0.0000E+00  0.0000E+00  0.0000E+00
     -3.169  0.6510E-01  0.9491E-02  0.1494E-02
     -3.088  0.1786E+01  0.2604E+00  0.4098E-01
     -3.007  0.0000E+00  0.0000E+00  0.0000E+00
     -2.927  0.0000E+00  0.0000E+00  0.0000E+00
     -2.846  0.0000E+00  0.0000E+00  0.0000E+00
     -2.765  0.0000E+00  0.0000E+00  0.0000E+00
     -2.685  0.0000E+00  0.0000E+00  0.0000E+00
     -2.604  0.0000E+00  0.0000E+00  0.0000E+00
     -2.523  0.0000E+00  0.0000E+00  0.0000E+00
     -2.443  0.0000E+00  0.0000E+00  0.0000E+00
     -2.362  0.0000E+00  0.0000E+00  0.0000E+00
     -2.281  0.0000E+00  0.0000E+00  0.0000E+00
     -2.201  0.0000E+00  0.0000E+00  0.0000E+00
     -2.120  0.0000E+00  0.0000E+00  0.0000E+00
     -2.039  0.0000E+00  0.0000E+00  0.0000E+00
     -1.959  0.0000E+00  0.0000E+00  0.0000E+00
     -1.878  0.0000E+00  0.0000E+00  0.0000E+00
     -1.797  0.1614E-12  0.2376E-13  0.1121E-13
     -1.717  0.1314E+01  0.3213E+00  0.9355E-01
     -1.636  0.0000E+00  0.0000E+00  0.0000E+00
     -1.555  0.0000E+00  0.0000E+00  0.0000E+00
     -1.475  0.0000E+00  0.0000E+00  0.0000E+00
     -1.394  0.0000E+00  0.0000E+00  0.0000E+00
     -1.314  0.0000E+00  0.0000E+00  0.0000E+00
     -1.233  0.0000E+00  0.0000E+00  0.0000E+00
     -1.152  0.0000E+00  0.0000E+00  0.0000E+00
     -1.072  0.0000E+00  0.0000E+00  0.0000E+00
     -0.991  0.2111E-20  0.5173E-06  0.4506E-07
     -0.910  0.1985E-14  0.4862E+00  0.4236E-01
     -0.830  0.3051E-06  0.2655E-05  0.1497E-06
     -0.749  0.1198E+00  0.1499E+01  0.6052E-01
     -0.668  0.3109E+00  0.2061E+01  0.1225E+00
     -0.588  0.0000E+00  0.0000E+00  0.0000E+00
     -0.507  0.0000E+00  0.0000E+00  0.0000E+00
     -0.426  0.0000E+00  0.0000E+00  0.0000E+00
     -0.346  0.0000E+00  0.0000E+00  0.0000E+00
     -0.265  0.0000E+00  0.0000E+00  0.0000E+00
     -0.184  0.2627E-19  0.8755E-05  0.2266E-06
     -0.104  0.1882E-14  0.6271E+00  0.1623E-01
     -0.023  0.0000E+00  0.0000E+00  0.0000E+00
      0.058  0.0000E+00  0.0000E+00  0.0000E+00
      0.138  0.0000E+00  0.0000E+00  0.0000E+00
      0.219  0.0000E+00  0.0000E+00  0.0000E+00
      0.300  0.0000E+00  0.0000E+00  0.0000E+00
      0.380  0.9919E-29  0.1451E-14  0.9525E-16
      0.461  0.1624E-13  0.2375E+01  0.1559E+00
      0.542  0.0000E+00  0.0000E+00  0.0000E+00
      0.622  0.0000E+00  0.0000E+00  0.0000E+00
      0.703  0.3672E-30  0.6149E-16  0.6575E-17
      0.784  0.6608E-14  0.1106E+01  0.1183E+00
      0.864  0.0000E+00  0.0000E+00  0.0000E+00
      0.945  0.0000E+00  0.0000E+00  0.0000E+00
      1.025  0.0000E+00  0.0000E+00  0.0000E+00
      1.106  0.0000E+00  0.0000E+00  0.0000E+00
      1.187  0.1328E-14  0.1668E+00  0.2190E-01
      1.267  0.9189E-14  0.1380E+01  0.1825E+00
      1.348  0.0000E+00  0.0000E+00  0.0000E+00
      1.429  0.0000E+00  0.0000E+00  0.0000E+00
      1.509  0.0000E+00  0.0000E+00  0.0000E+00
      1.590  0.0000E+00  0.0000E+00  0.0000E+00
      1.671  0.1994E-17  0.2978E-03  0.6831E-04
      1.751  0.8164E-14  0.1219E+01  0.2797E+00
      1.832  0.0000E+00  0.0000E+00  0.0000E+00
      1.913  0.0000E+00  0.0000E+00  0.0000E+00
      1.993  0.0000E+00  0.0000E+00  0.0000E+00
      2.074  0.0000E+00  0.0000E+00  0.0000E+00
      2.155  0.0000E+00  0.0000E+00  0.0000E+00
      2.235  0.0000E+00  0.0000E+00  0.0000E+00
      2.316  0.2961E-13  0.5034E-01  0.2778E-01
      2.397  0.3847E-07  0.9817E-01  0.5418E-01
      2.477  0.1781E+00  0.2076E-13  0.1304E-13
      2.558  0.0000E+00  0.0000E+00  0.0000E+00
      2.639  0.0000E+00  0.0000E+00  0.0000E+00
      2.719  0.0000E+00  0.0000E+00  0.0000E+00
      2.800  0.0000E+00  0.0000E+00  0.0000E+00
      2.881  0.0000E+00  0.0000E+00  0.0000E+00
      2.961  0.0000E+00  0.0000E+00  0.0000E+00
      3.042  0.0000E+00  0.0000E+00  0.0000E+00
      3.123  0.1915E-10  0.5407E-11  0.1298E-11
      3.203  0.4526E+00  0.1278E+00  0.3068E-01
      3.284  0.0000E+00  0.0000E+00  0.0000E+00
      3.365  0.0000E+00  0.0000E+00  0.0000E+00
      3.445  0.0000E+00  0.0000E+00  0.0000E+00
      3.526  0.0000E+00  0.0000E+00  0.0000E+00
      3.606  0.8155E+00  0.3733E+00  0.3208E-01
      3.687  0.0000E+00  0.0000E+00  0.0000E+00
      3.768  0.0000E+00  0.0000E+00  0.0000E+00
      3.848  0.6657E-18  0.1267E-03  0.3305E-04
      3.929  0.1283E-14  0.2442E+00  0.6370E-01
      4.010  0.2294E+00  0.2164E-14  0.6480E-01
      4.090  0.0000E+00  0.0000E+00  0.0000E+00
      4.171  0.0000E+00  0.0000E+00  0.0000E+00
      4.252  0.0000E+00  0.0000E+00  0.0000E+00
      4.332  0.2797E+00  0.3179E+00  0.7337E-01
      4.413  0.0000E+00  0.0000E+00  0.0000E+00
      4.494  0.6379E-01  0.6603E-01  0.2510E-01
      4.574  0.1079E+01  0.1117E+01  0.4245E+00
      4.655  0.0000E+00  0.0000E+00  0.0000E+00
      4.736  0.0000E+00  0.0000E+00  0.0000E+00
      4.816  0.0000E+00  0.0000E+00  0.0000E+00
      4.897  0.2135E-01  0.1730E-01  0.3641E-02
      4.978  0.8069E+00  0.6541E+00  0.1377E+00
      5.058  0.0000E+00  0.0000E+00  0.0000E+00
      5.139  0.0000E+00  0.0000E+00  0.0000E+00
      5.220  0.0000E+00  0.0000E+00  0.0000E+00
      5.300  0.0000E+00  0.0000E+00  0.0000E+00
      5.381  0.9206E-12  0.1579E-11  0.2709E-12
      5.462  0.2301E+00  0.3946E+00  0.6771E-01
      5.542  0.0000E+00  0.0000E+00  0.0000E+00
      5.623  0.0000E+00  0.0000E+00  0.0000E+00
      5.704  0.0000E+00  0.0000E+00  0.0000E+00
      5.784  0.0000E+00  0.0000E+00  0.0000E+00
      5.865  0.0000E+00  0.0000E+00  0.0000E+00
      5.945  0.0000E+00  0.0000E+00  0.0000E+00
      6.026  0.8191E-16  0.3561E+00  0.8651E-02
      6.107  0.0000E+00  0.0000E+00  0.0000E+00
      6.187  0.0000E+00  0.0000E+00  0.0000E+00
      6.268  0.0000E+00  0.0000E+00  0.0000E+00
      6.349  0.0000E+00  0.0000E+00  0.0000E+00
      6.429  0.0000E+00  0.0000E+00  0.0000E+00
      6.510  0.0000E+00  0.0000E+00  0.0000E+00
      6.591  0.0000E+00  0.0000E+00  0.0000E+00
      6.671  0.1300E+00  0.3571E-14  0.1536E-01
      6.752  0.4069E+00  0.1118E-13  0.4808E-01
      6.833  0.1527E+00  0.2747E+00  0.6786E-01
      6.913  0.8234E+00  0.3383E+01  0.5811E+00
      6.994  0.6797E-14  0.7525E+00  0.2042E+00
      7.075  0.8890E-13  0.5011E-01  0.2398E+00
      7.155  0.0000E+00  0.0000E+00  0.0000E+00
      7.236  0.0000E+00  0.0000E+00  0.0000E+00
      7.317  0.0000E+00  0.0000E+00  0.0000E+00
      7.397  0.0000E+00  0.0000E+00  0.0000E+00
      7.478  0.5033E-30  0.2386E-14  0.1998E-15
      7.559  0.2015E-15  0.9550E+00  0.7998E-01
      7.639  0.0000E+00  0.0000E+00  0.0000E+00
      7.720  0.2184E-15  0.2851E-15  0.7288E-16
      7.801  0.3933E+00  0.5133E+00  0.1312E+00
      7.881  0.8291E-12  0.1640E+01  0.2160E+00
      7.962  0.5623E-06  0.2552E-03  0.1026E-03
      8.043  0.2037E+00  0.1517E+01  0.5141E+00
      8.123  0.0000E+00  0.0000E+00  0.0000E+00
      8.204  0.0000E+00  0.0000E+00  0.0000E+00
      8.284  0.1276E-26  0.1069E-10  0.3043E-11
      8.365  0.3312E-15  0.6080E+00  0.1730E+00
      8.446  0.5119E-01  0.2162E+01  0.7616E+00
      8.526  0.0000E+00  0.0000E+00  0.0000E+00
      8.607  0.0000E+00  0.0000E+00  0.0000E+00
      8.688  0.7181E-20  0.6334E-04  0.9523E-05
      8.768  0.1893E-15  0.1670E+01  0.2511E+00
      8.849  0.0000E+00  0.0000E+00  0.0000E+00
      8.930  0.0000E+00  0.0000E+00  0.0000E+00
      9.010  0.0000E+00  0.0000E+00  0.0000E+00
      9.091  0.6885E-15  0.1369E+01  0.3866E+00
      9.172  0.0000E+00  0.0000E+00  0.0000E+00
      9.252  0.0000E+00  0.0000E+00  0.0000E+00
      9.333  0.0000E+00  0.0000E+00  0.0000E+00
      9.414  0.0000E+00  0.0000E+00  0.0000E+00
      9.494  0.0000E+00  0.0000E+00  0.0000E+00
      9.575  0.0000E+00  0.0000E+00  0.0000E+00
      9.656  0.0000E+00  0.0000E+00  0.0000E+00
      9.736  0.0000E+00  0.0000E+00  0.0000E+00
      9.817  0.0000E+00  0.0000E+00  0.0000E+00
      9.898  0.0000E+00  0.0000E+00  0.0000E+00
      9.978  0.2146E-04  0.4448E-03  0.3380E-03
     10.059  0.4643E-02  0.9620E-01  0.7311E-01
     10.140  0.0000E+00  0.0000E+00  0.0000E+00
     10.220  0.0000E+00  0.0000E+00  0.0000E+00
     10.301  0.0000E+00  0.0000E+00  0.0000E+00
     10.382  0.0000E+00  0.0000E+00  0.0000E+00
     10.462  0.0000E+00  0.0000E+00  0.0000E+00
     10.543  0.0000E+00  0.0000E+00  0.0000E+00
     10.623  0.0000E+00  0.0000E+00  0.0000E+00
     10.704  0.0000E+00  0.0000E+00  0.0000E+00
     10.785  0.0000E+00  0.0000E+00  0.0000E+00
     10.865  0.0000E+00  0.0000E+00  0.0000E+00
     10.946  0.0000E+00  0.0000E+00  0.0000E+00
     11.027  0.0000E+00  0.0000E+00  0.0000E+00
     11.107  0.0000E+00  0.0000E+00  0.0000E+00
     11.188  0.0000E+00  0.0000E+00  0.0000E+00
     11.269  0.0000E+00  0.0000E+00  0.0000E+00
     11.349  0.0000E+00  0.0000E+00  0.0000E+00
     11.430  0.0000E+00  0.0000E+00  0.0000E+00
     11.511  0.0000E+00  0.0000E+00  0.0000E+00
     11.591  0.0000E+00  0.0000E+00  0.0000E+00
     11.672  0.0000E+00  0.0000E+00  0.0000E+00
     11.753  0.0000E+00  0.0000E+00  0.0000E+00
     11.833  0.0000E+00  0.0000E+00  0.0000E+00
     11.914  0.0000E+00  0.0000E+00  0.0000E+00
     11.995  0.4285E-18  0.1474E-04  0.1693E-05
     12.075  0.2553E-13  0.8779E+00  0.1009E+00
     12.156  0.0000E+00  0.0000E+00  0.0000E+00
     12.237  0.0000E+00  0.0000E+00  0.0000E+00
     12.317  0.0000E+00  0.0000E+00  0.0000E+00
     12.398  0.0000E+00  0.0000E+00  0.0000E+00
     12.479  0.0000E+00  0.0000E+00  0.0000E+00
     12.559  0.0000E+00  0.0000E+00  0.0000E+00
     12.640  0.0000E+00  0.0000E+00  0.0000E+00
     12.721  0.0000E+00  0.0000E+00  0.0000E+00
     12.801  0.0000E+00  0.0000E+00  0.0000E+00
     12.882  0.0000E+00  0.0000E+00  0.0000E+00
     12.962  0.0000E+00  0.0000E+00  0.0000E+00
     13.043  0.0000E+00  0.0000E+00  0.0000E+00
     13.124  0.0000E+00  0.0000E+00  0.0000E+00
     13.12379053    -11.07279524  301      2.38655560      1.00000000
    -11.073  0.0000E+00  0.0000E+00  0.0000E+00
    -10.992  0.0000E+00  0.0000E+00  0.0000E+00
    -10.911  0.0000E+00  0.0000E+00  0.0000E+00
    -10.831  0.0000E+00  0.0000E+00  0.0000E+00
    -10.750  0.0000E+00  0.0000E+00  0.0000E+00
    -10.670  0.0000E+00  0.0000E+00  0.0000E+00
    -10.589  0.0000E+00  0.0000E+00  0.0000E+00
    -10.508  0.0000E+00  0.0000E+00  0.0000E+00
    -10.428  0.0000E+00  0.0000E+00  0.0000E+00
    -10.347  0.0000E+00  0.0000E+00  0.0000E+00
    -10.266  0.0000E+00  0.0000E+00  0.0000E+00
    -10.186  0.0000E+00  0.0000E+00  0.0000E+00
    -10.105  0.0000E+00  0.0000E+00  0.0000E+00
    -10.024  0.3230E-13  0.1016E-30  0.4900E-28
     -9.944  0.1651E+00  0.5195E-18  0.2505E-15
     -9.863  0.0000E+00  0.0000E+00  0.0000E+00
     -9.782  0.0000E+00  0.0000E+00  0.0000E+00
     -9.702  0.0000E+00  0.0000E+00  0.0000E+00
     -9.621  0.0000E+00  0.0000E+00  0.0000E+00
     -9.540  0.0000E+00  0.0000E+00  0.0000E+00
     -9.460  0.0000E+00  0.0000E+00  0.0000E+00
     -9.379  0.7361E+00  0.5434E-02  0.2409E-03
     -9.298  0.0000E+00  0.0000E+00  0.0000E+00
     -9.218  0.6139E-11  0.6276E-13  0.1899E-14
     -9.137  0.1077E+01  0.1101E-01  0.3330E-03
     -9.056  0.0000E+00  0.0000E+00  0.0000E+00
     -8.976  0.0000E+00  0.0000E+00  0.0000E+00
     -8.895  0.0000E+00  0.0000E+00  0.0000E+00
     -8.814  0.0000E+00  0.0000E+00  0.0000E+00
     -8.734  0.0000E+00  0.0000E+00  0.0000E+00
     -8.653  0.0000E+00  0.0000E+00  0.0000E+00
     -8.572  0.4012E+00  0.3554E-02  0.2333E-03
     -8.492  0.2009E+01  0.1764E-01  0.1181E-02
     -8.411  0.8031E+00  0.1864E-02  0.8886E-03
     -8.331  0.0000E+00  0.0000E+00  0.0000E+00
     -8.250  0.7184E-06  0.4078E-08  0.3940E-09
     -8.169  0.5148E+01  0.2922E-01  0.2823E-02
     -8.089  0.0000E+00  0.0000E+00  0.0000E+00
     -8.008  0.0000E+00  0.0000E+00  0.0000E+00
     -7.927  0.0000E+00  0.0000E+00  0.0000E+00
     -7.847  0.1741E-02  0.2561E-19  0.5578E-06
     -7.766  0.2146E+01  0.3280E-16  0.3226E-03
     -7.685  0.0000E+00  0.0000E+00  0.0000E+00
     -7.605  0.0000E+00  0.0000E+00  0.0000E+00
     -7.524  0.0000E+00  0.0000E+00  0.0000E+00
     -7.443  0.0000E+00  0.0000E+00  0.0000E+00
     -7.363  0.0000E+00  0.0000E+00  0.0000E+00
     -7.282  0.0000E+00  0.0000E+00  0.0000E+00
     -7.201  0.0000E+00  0.0000E+00  0.0000E+00
     -7.121  0.0000E+00  0.0000E+00  0.0000E+00
     -7.040  0.0000E+00  0.0000E+00  0.0000E+00
     -6.959  0.0000E+00  0.0000E+00  0.0000E+00
     -6.879  0.0000E+00  0.0000E+00  0.0000E+00
     -6.798  0.0000E+00  0.0000E+00  0.0000E+00
     -6.717  0.0000E+00  0.0000E+00  0.0000E+00
     -6.637  0.0000E+00  0.0000E+00  0.0000E+00
     -6.556  0.0000E+00  0.0000E+00  0.0000E+00
     -6.475  0.0000E+00  0.0000E+00  0.0000E+00
     -6.395  0.0000E+00  0.0000E+00  0.0000E+00
     -6.314  0.0000E+00  0.0000E+00  0.0000E+00
     -6.233  0.0000E+00  0.0000E+00  0.0000E+00
     -6.153  0.0000E+00  0.0000E+00  0.0000E+00
     -6.072  0.0000E+00  0.0000E+00  0.0000E+00
     -5.992  0.0000E+00  0.0000E+00  0.0000E+00
     -5.911  0.0000E+00  0.0000E+00  0.0000E+00
     -5.830  0.0000E+00  0.0000E+00  0.0000E+00
     -5.750  0.0000E+00  0.0000E+00  0.0000E+00
     -5.669  0.0000E+00  0.0000E+00  0.0000E+00
     -5.588  0.0000E+00  0.0000E+00  0.0000E+00
     -5.508  0.0000E+00  0.0000E+00  0.0000E+00
     -5.427  0.0000E+00  0.0000E+00  0.0000E+00
     -5.346  0.0000E+00  0.0000E+00  0.0000E+00
     -5.266  0.0000E+00  0.0000E+00  0.0000E+00
     -5.185  0.0000E+00  0.0000E+00  0.0000E+00
     -5.104  0.0000E+00  0.0000E+00  0.0000E+00
     -5.024  0.0000E+00  0.0000E+00  0.0000E+00
     -4.943  0.0000E+00  0.0000E+00  0.0000E+00
     -4.862  0.0000E+00  0.0000E+00  0.0000E+00
     -4.782  0.0000E+00  0.0000E+00  0.0000E+00
     -4.701  0.0000E+00  0.0000E+00  0.0000E+00
     -4.620  0.0000E+00  0.0000E+00  0.0000E+00
     -4.540  0.0000E+00  0.0000E+00  0.0000E+00
     -4.459  0.0000E+00  0.0000E+00  0.0000E+00
     -4.378  0.0000E+00  0.0000E+00  0.0000E+00
     -4.298  0.0000E+00  0.0000E+00  0.0000E+00
     -4.217  0.2735E-16  0.1582E+00  0.5059E-02
     -4.136  0.0000E+00  0.0000E+00  0.0000E+00
     -4.056  0.3037E-15  0.1942E+00  0.9276E-02
     -3.975  0.5004E-01  0.2383E+00  0.3180E-02
     -3.894  0.0000E+00  0.0000E+00  0.0000E+00