    2    2  100    1
  0.2254527E+02  0.3995153E-09  0.3995153E-09  0.3995153E-09  0.5000000E-15
  1.000000000000000E-004
  CAR 
 Name                                    
      8      8      8
 
  0.0000000E+00  0.0000000E+00  0.0000000E+00  0.1562500E-01
    1       -9.972950
    2        2.318919
    3        2.318919
    4        2.318919
    5        2.432377
    6        6.023579
    7        6.023579
    8        6.023579
 
  0.2500000E+00  0.0000000E+00  0.0000000E+00  0.1250000E+00
    1       -9.379466
    2       -1.719517
    3        1.695397
    4        1.695397
    5        3.590263
    6        6.844909
    7        6.844909
    8        8.009171
 
  0.5000000E+00  0.0000000E+00  0.0000000E+00  0.6250000E-01
    1       -8.478319
    2       -4.001057
    3        1.264584
    4        1.264584
    5        3.168441
    6        6.920559
    7        6.920559
    8        9.996650
 
  0.2500000E+00  0.2500000E+00  0.0000000E+00  0.9375000E-01
    1       -9.169728
    2       -1.746142
    3        0.761806
    4        0.761806
    5        4.324805
    6        5.429239
    7        8.715731
    8        8.715731
 
  0.5000000E+00  0.2500000E+00  0.0000000E+00  0.3750000E+00
    1       -8.213536
    2       -3.723581
    3       -0.688073
    4        0.436835
    5        4.504923
    6        6.839814
    7        8.419847
    8        9.090402
 
 -0.2500000E+00  0.2500000E+00  0.0000000E+00  0.1875000E+00
    1       -8.565681
    2       -3.155781
    3       -0.797323
    4        1.193992
    5        4.910718
    6        7.776569
    7        7.845731
    8        7.986406
 
  0.5000000E+00  0.5000000E+00  0.0000000E+00  0.4687500E-01
    1       -7.826689
    2       -4.229702
    3       -0.154706
    4       -0.154705
    5        3.871628
    6        3.997636
    7       12.023946
    8       12.023946
 
 -0.2500000E+00  0.5000000E+00  0.2500000E+00  0.9375000E-01
    1       -7.791521
    2       -4.057959
    3       -0.957361
    4       -0.752674
    5        6.676314
    6        7.004380
    7        7.533256
    8        8.331306
