       N       E                     dE             d eps       ncg     rms          rms(c)
DAV:   1     0.146733646278E+02    0.14673E+02   -0.33850E+03   128   0.817E+02
DAV:   2    -0.759080680511E+01   -0.22264E+02   -0.21222E+02   176   0.894E+01
DAV:   3    -0.827711261981E+01   -0.68631E+00   -0.68631E+00   192   0.179E+01
DAV:   4    -0.827904237842E+01   -0.19298E-02   -0.19298E-02   144   0.923E-01
DAV:   5    -0.827904717319E+01   -0.47948E-05   -0.47948E-05   184   0.521E-02    0.394E+00
DAV:   6    -0.811225031745E+01    0.16680E+00   -0.30294E-01   128   0.259E+00    0.231E+00
DAV:   7    -0.807453785780E+01    0.37712E-01   -0.15680E-01   160   0.209E+00    0.634E-01
DAV:   8    -0.807457097037E+01   -0.33113E-04   -0.11980E-02   152   0.669E-01    0.100E-01
DAV:   9    -0.807488453366E+01   -0.31356E-03   -0.49672E-04   160   0.173E-01    0.555E-02
DAV:  10    -0.807502476180E+01   -0.14023E-03   -0.19379E-04   160   0.101E-01    0.954E-03
DAV:  11    -0.807502747616E+01   -0.27144E-05   -0.18356E-05   152   0.223E-02    0.615E-03
DAV:  12    -0.807502812430E+01   -0.64814E-06   -0.19077E-06   136   0.985E-03
   1 F= -.80750281E+01 E0= -.80750281E+01  d E =-.807503E+01
       N       E                     dE             d eps       ncg     rms          rms(c)
DAV:   1    -0.820695681497E+01   -0.13193E+00   -0.25967E+00   144   0.873E+00    0.146E+00
DAV:   2    -0.813195712200E+01    0.75000E-01   -0.13995E-01   136   0.217E+00    0.707E-01
DAV:   3    -0.811016447236E+01    0.21793E-01   -0.63554E-02   144   0.130E+00    0.229E-01
DAV:   4    -0.810840995502E+01    0.17545E-02   -0.38471E-03   136   0.347E-01    0.975E-02
DAV:   5    -0.810832300047E+01    0.86955E-04   -0.32775E-04   144   0.118E-01    0.654E-02
DAV:   6    -0.810834668647E+01   -0.23686E-04   -0.43249E-05   136   0.423E-02    0.147E-02
DAV:   7    -0.810834332939E+01    0.33571E-05   -0.11873E-05   144   0.155E-02    0.143E-03
DAV:   8    -0.810834395884E+01   -0.62945E-06   -0.11834E-06   136   0.842E-03
   2 F= -.81083440E+01 E0= -.81082234E+01  d E =-.333158E-01
       N       E                     dE             d eps       ncg     rms          rms(c)
DAV:   1    -0.812062114709E+01   -0.12278E-01   -0.22331E-01   144   0.260E+00    0.413E-01
DAV:   2    -0.811485821536E+01    0.57629E-02   -0.90234E-03   136   0.562E-01    0.207E-01
DAV:   3    -0.811292076744E+01    0.19374E-02   -0.50082E-03   144   0.369E-01    0.942E-02
DAV:   4    -0.811279477786E+01    0.12599E-03   -0.28869E-04   136   0.930E-02    0.412E-02
DAV:   5    -0.811278853749E+01    0.62404E-05   -0.24309E-05   136   0.326E-02    0.220E-02
DAV:   6    -0.811278833718E+01    0.20031E-06   -0.24365E-06   136   0.101E-02
   3 F= -.81127883E+01 E0= -.81127883E+01  d E =-.377602E-01
       N       E                     dE             d eps       ncg     rms          rms(c)
DAV:   1    -0.811298152284E+01   -0.19299E-03   -0.26525E-03   136   0.287E-01    0.477E-02
DAV:   2    -0.811290704545E+01    0.74477E-04   -0.14380E-04   128   0.680E-02    0.227E-02
DAV:   3    -0.811288826731E+01    0.18778E-04   -0.64956E-05   144   0.411E-02    0.814E-03
DAV:   4    -0.811288724556E+01    0.10218E-05   -0.33284E-06   120   0.104E-02    0.353E-03
DAV:   5    -0.811288731268E+01   -0.67121E-07   -0.40812E-07    64   0.419E-03
   4 F= -.81128873E+01 E0= -.81128873E+01  d E =-.378592E-01
