PROCAR new format
# of k-points:    8         # of bands:   8         # of ions:   2

 k-point    1 :    0.00000000 0.00000000 0.00000000     weight = 0.01562500

band   1 # energy   -9.97295043 # occ.  2.00000000
 
ion      s      p      d    tot
  1  0.234  0.000  0.000  0.234
  2  0.426  0.000  0.000  0.426
tot  0.661  0.000  0.000  0.661
 
band   2 # energy    2.31891870 # occ.  2.00000000
 
ion      s      p      d    tot
  1  0.000  0.128  0.071  0.198
  2  0.000  0.452  0.005  0.457
tot  0.000  0.580  0.075  0.655
 
band   3 # energy    2.31891870 # occ.  2.00000000
 
ion      s      p      d    tot
  1  0.000  0.128  0.071  0.198
  2  0.000  0.452  0.005  0.457
tot  0.000  0.580  0.075  0.655
 
band   4 # energy    2.31891926 # occ.  2.00000000
 
ion      s      p      d    tot
  1  0.000  0.128  0.071  0.198
  2  0.000  0.452  0.005  0.457
tot  0.000  0.580  0.075  0.655
 
band   5 # energy    2.43237692 # occ.  0.00000000
 
ion      s      p      d    tot
  1  0.460  0.000  0.000  0.460
  2  0.345  0.000  0.000  0.345
tot  0.805  0.000  0.000  0.805
 
band   6 # energy    6.02357857 # occ.  0.00000000
 
ion      s      p      d    tot
  1  0.000  0.478  0.012  0.490
  2  0.000  0.039  0.062  0.100
tot  0.000  0.517  0.073  0.590
 
band   7 # energy    6.02357859 # occ.  0.00000000
 
ion      s      p      d    tot
  1  0.000  0.478  0.012  0.490
  2  0.000  0.039  0.062  0.100
tot  0.000  0.517  0.073  0.590
 
band   8 # energy    6.02357859 # occ.  0.00000000
 
ion      s      p      d    tot
  1  0.000  0.478  0.012  0.490
  2  0.000  0.039  0.062  0.100
tot  0.000  0.517  0.073  0.590
 

 k-point    2 :    0.25000000 0.00000000 0.00000000     weight = 0.12500000

band   1 # energy   -9.37946589 # occ.  2.00000000
 
ion      s      p      d    tot
  1  0.196  0.019  0.003  0.217
  2  0.453  0.003  0.000  0.456
tot  0.649  0.022  0.003  0.673
 
band   2 # energy   -1.71951705 # occ.  2.00000000
 
ion      s      p      d    tot
  1  0.255  0.101  0.019  0.375
  2  0.117  0.175  0.004  0.296
tot  0.372  0.276  0.023  0.671
 
band   3 # energy    1.69539695 # occ.  2.00000000
 
ion      s      p      d    tot
  1  0.000  0.197  0.045  0.242
  2  0.000  0.397  0.005  0.402
tot  0.000  0.594  0.050  0.644
 
band   4 # energy    1.69539739 # occ.  2.00000000
 
ion      s      p      d    tot
  1  0.000  0.197  0.045  0.242
  2  0.000  0.397  0.005  0.402
tot  0.000  0.594  0.050  0.644
 
band   5 # energy    3.59026317 # occ.  0.00000000
 
ion      s      p      d    tot
  1  0.266  0.122  0.010  0.398
  2  0.141  0.078  0.017  0.236
tot  0.407  0.200  0.028  0.635
 
band   6 # energy    6.84490926 # occ.  0.00000000
 
ion      s      p      d    tot
  1  0.000  0.389  0.040  0.429
  2  0.000  0.083  0.061  0.144
tot  0.000  0.472  0.101  0.573
 
band   7 # energy    6.84490926 # occ.  0.00000000
 
ion      s      p      d    tot
  1  0.000  0.389  0.040  0.429
  2  0.000  0.083  0.061  0.144
tot  0.000  0.472  0.101  0.573
 
band   8 # energy    8.00917121 # occ.  0.00000000
 
ion      s      p      d    tot
  1  0.065  0.170  0.038  0.273
  2  0.056  0.232  0.026  0.314
tot  0.121  0.403  0.063  0.587
 

 k-point    3 :    0.50000000 0.00000000 0.00000000     weight = 0.06250000

band   1 # energy   -8.47831899 # occ.  2.00000000
 
ion      s      p      d    tot
  1  0.112  0.046  0.010  0.168
  2  0.533  0.001  0.001  0.535
tot  0.645  0.048  0.010  0.703
 
band   2 # energy   -4.00105670 # occ.  2.00000000
 
ion      s      p      d    tot
  1  0.345  0.089  0.000  0.434
  2  0.032  0.154  0.002  0.188
tot  0.377  0.242  0.002  0.622
 
band   3 # energy    1.26458390 # occ.  2.00000000
 
ion      s      p      d    tot
  1  0.000  0.230  0.031  0.261
  2  0.000  0.376  0.004  0.380
tot  0.000  0.607  0.034  0.641
 
band   4 # energy    1.26458431 # occ.  2.00000000
 
ion      s      p      d    tot
  1  0.000  0.230  0.031  0.261
  2  0.000  0.376  0.004  0.380
tot  0.000  0.607  0.034  0.641
 
band   5 # energy    3.16844134 # occ.  0.00000000
 
ion      s      p      d    tot
  1  0.292  0.082  0.020  0.394
  2  0.140  0.051  0.021  0.213
tot  0.432  0.134  0.041  0.607
 
band   6 # energy    6.92055935 # occ.  0.00000000
 
ion      s      p      d    tot
  1  0.000  0.285  0.071  0.356
  2  0.000  0.068  0.065  0.134
tot  0.000  0.354  0.136  0.490
 
band   7 # energy    6.92055937 # occ.  0.00000000
 
ion      s      p      d    tot
  1  0.000  0.285  0.071  0.356
  2  0.000  0.068  0.065  0.134
tot  0.000  0.354  0.136  0.490
 
band   8 # energy    9.99665015 # occ.  0.00000000
 
ion      s      p      d    tot
  1  0.003  0.062  0.047  0.113
  2  0.001  0.128  0.005  0.133
tot  0.004  0.190  0.052  0.246
 

 k-point    4 :    0.25000000 0.25000000 0.00000000     weight = 0.09375000

band   1 # energy   -9.16972830 # occ.  2.00000000
 
ion      s      p      d    tot
  1  0.179  0.027  0.004  0.209
  2  0.463  0.005  0.000  0.468
tot  0.642  0.031  0.004  0.677
 
band   2 # energy   -1.74614160 # occ.  2.00000000
 
ion      s      p      d    tot
  1  0.344  0.051  0.024  0.418
  2  0.150  0.158  0.005  0.312
tot  0.494  0.208  0.029  0.730
 
band   3 # energy    0.76180566 # occ.  2.00000000
 
ion      s      p      d    tot
  1  0.000  0.238  0.025  0.264
  2  0.000  0.337  0.004  0.341
tot  0.000  0.575  0.030  0.605
 
band   4 # energy    0.76180592 # occ.  2.00000000
 
ion      s      p      d    tot
  1  0.000  0.238  0.025  0.264
  2  0.000  0.337  0.004  0.341
tot  0.000  0.575  0.030  0.605
 
band   5 # energy    4.32480470 # occ.  0.00000000
 
ion      s      p      d    tot
  1  0.140  0.159  0.037  0.337
  2  0.006  0.084  0.040  0.130
tot  0.147  0.243  0.077  0.467
 
band   6 # energy    5.42923859 # occ.  0.00000000
 
ion      s      p      d    tot
  1  0.099  0.170  0.029  0.298
  2  0.099  0.150  0.018  0.268
tot  0.198  0.320  0.047  0.565
 
band   7 # energy    8.71573073 # occ.  0.00000000
 
ion      s      p      d    tot
  1  0.000  0.359  0.054  0.413
  2  0.000  0.166  0.063  0.229
tot  0.000  0.525  0.117  0.642
 
band   8 # energy    8.71573084 # occ.  0.00000000
 
ion      s      p      d    tot
  1  0.000  0.359  0.054  0.413
  2  0.000  0.166  0.063  0.229
tot  0.000  0.525  0.117  0.642
 

 k-point    5 :    0.50000000 0.25000000 0.00000000     weight = 0.37500000

band   1 # energy   -8.21353595 # occ.  2.00000000
 
ion      s      p      d    tot
  1  0.075  0.061  0.011  0.148
  2  0.554  0.003  0.000  0.557
tot  0.629  0.064  0.011  0.705
 
band   2 # energy   -3.72358130 # occ.  2.00000000
 
ion      s      p      d    tot
  1  0.454  0.041  0.005  0.500
  2  0.048  0.142  0.005  0.195
tot  0.502  0.183  0.009  0.695
 
band   3 # energy   -0.68807258 # occ.  2.00000000
 
ion      s      p      d    tot
  1  0.034  0.222  0.013  0.269
  2  0.010  0.257  0.003  0.271
tot  0.044  0.479  0.017  0.539
 
band   4 # energy    0.43683489 # occ.  2.00000000
 
ion      s      p      d    tot
  1  0.000  0.256  0.017  0.272
  2  0.000  0.329  0.003  0.332
tot  0.000  0.585  0.020  0.604
 
band   5 # energy    4.50492305 # occ.  0.00000000
 
ion      s      p      d    tot
  1  0.123  0.127  0.048  0.298
  2  0.044  0.092  0.034  0.170
tot  0.167  0.219  0.082  0.469
 
band   6 # energy    6.83981429 # occ.  0.00000000
 
ion      s      p      d    tot
  1  0.105  0.120  0.040  0.264
  2  0.029  0.222  0.031  0.282
tot  0.134  0.342  0.070  0.546
 
band   7 # energy    8.41984672 # occ.  0.00000000
 
ion      s      p      d    tot
  1  0.006  0.233  0.082  0.320
  2  0.037  0.068  0.055  0.160
tot  0.042  0.301  0.137  0.480
 
band   8 # energy    9.09040154 # occ.  0.00000000
 
ion      s      p      d    tot
  1  0.000  0.275  0.078  0.353
  2  0.000  0.139  0.067  0.206
tot  0.000  0.414  0.145  0.559
 

 k-point    6 :   -0.25000000 0.25000000 0.00000000     weight = 0.18750000

band   1 # energy   -8.56568064 # occ.  2.00000000
 
ion      s      p      d    tot
  1  0.122  0.046  0.008  0.176
  2  0.513  0.005  0.000  0.518
tot  0.636  0.051  0.008  0.695
 
band   2 # energy   -3.15578056 # occ.  2.00000000
 
ion      s      p      d    tot
  1  0.398  0.058  0.009  0.465
  2  0.088  0.145  0.005  0.237
tot  0.486  0.203  0.014  0.703
 
band   3 # energy   -0.79732314 # occ.  2.00000000
 
ion      s      p      d    tot
  1  0.026  0.224  0.013  0.263
  2  0.004  0.255  0.004  0.262
tot  0.029  0.479  0.016  0.524
 
band   4 # energy    1.19399165 # occ.  2.00000000
 
ion      s      p      d    tot
  1  0.000  0.232  0.030  0.262
  2  0.000  0.367  0.004  0.372
tot  0.000  0.599  0.035  0.634
 
band   5 # energy    4.91071832 # occ.  0.00000000
 
ion      s      p      d    tot
  1  0.178  0.144  0.030  0.353
  2  0.072  0.127  0.026  0.225
tot  0.250  0.272  0.057  0.578
 
band   6 # energy    7.77656905 # occ.  0.00000000
 
ion      s      p      d    tot
  1  0.085  0.110  0.028  0.223
  2  0.000  0.214  0.055  0.269
tot  0.085  0.324  0.083  0.492
 
band   7 # energy    7.84573141 # occ.  0.00000000
 
ion      s      p      d    tot
  1  0.000  0.353  0.046  0.399
  2  0.000  0.116  0.057  0.173
tot  0.000  0.469  0.103  0.572
 
band   8 # energy    7.98640561 # occ.  0.00000000
 
ion      s      p      d    tot
  1  0.000  0.213  0.086  0.299
  2  0.064  0.133  0.024  0.221
tot  0.065  0.346  0.109  0.520
 

 k-point    7 :    0.50000000 0.50000000 0.00000000     weight = 0.04687500

band   1 # energy   -7.82668886 # occ.  2.00000000
 
ion      s      p      d    tot
  1  0.000  0.087  0.014  0.101
  2  0.612  0.000  0.000  0.612
tot  0.612  0.087  0.014  0.713
 
band   2 # energy   -4.22970213 # occ.  2.00000000
 
ion      s      p      d    tot
  1  0.552  0.000  0.004  0.556
  2  0.000  0.141  0.005  0.146
tot  0.552  0.141  0.008  0.701
 
band   3 # energy   -0.15470561 # occ.  2.00000000
 
ion      s      p      d    tot
  1  0.000  0.270  0.007  0.277
  2  0.000  0.308  0.001  0.309
tot  0.000  0.578  0.008  0.586
 
band   4 # energy   -0.15470537 # occ.  2.00000000
 
ion      s      p      d    tot
  1  0.000  0.270  0.007  0.277
  2  0.000  0.308  0.001  0.309
tot  0.000  0.578  0.008  0.586
 
band   5 # energy    3.87162756 # occ.  0.00000000
 
ion      s      p      d    tot
  1  0.000  0.210  0.055  0.265
  2  0.070  0.000  0.033  0.103
tot  0.070  0.210  0.088  0.368
 
band   6 # energy    3.99763572 # occ.  0.00000000
 
ion      s      p      d    tot
  1  0.206  0.000  0.058  0.265
  2  0.000  0.123  0.041  0.164
tot  0.206  0.123  0.099  0.428
 
band   7 # energy   12.02394552 # occ.  0.00000000
 
ion      s      p      d    tot
  1  0.000  0.378  0.043  0.421
  2  0.000  0.265  0.030  0.295
tot  0.000  0.642  0.074  0.716
 
band   8 # energy   12.02394573 # occ.  0.00000000
 
ion      s      p      d    tot
  1  0.000  0.378  0.043  0.421
  2  0.000  0.265  0.030  0.295
tot  0.000  0.642  0.074  0.716
 

 k-point    8 :   -0.25000000 0.50000000 0.25000000     weight = 0.09375000

band   1 # energy   -7.79152090 # occ.  2.00000000
 
ion      s      p      d    tot
  1  0.000  0.083  0.016  0.099
  2  0.618  0.000  0.000  0.618
tot  0.618  0.083  0.016  0.717
 
band   2 # energy   -4.05795941 # occ.  2.00000000
 
ion      s      p      d    tot
  1  0.587  0.000  0.001  0.588
  2  0.000  0.135  0.006  0.141
tot  0.587  0.135  0.007  0.729
 
band   3 # energy   -0.95736118 # occ.  2.00000000
 
ion      s      p      d    tot
  1  0.000  0.209  0.018  0.227
  2  0.000  0.278  0.000  0.278
tot  0.000  0.487  0.018  0.505
 
band   4 # energy   -0.75267418 # occ.  2.00000000
 
ion      s      p      d    tot
  1  0.000  0.280  0.001  0.281
  2  0.000  0.246  0.005  0.251
tot  0.000  0.526  0.006  0.532
 
band   5 # energy    6.67631394 # occ.  0.00000000
 
ion      s      p      d    tot
  1  0.231  0.000  0.027  0.258
  2  0.000  0.325  0.032  0.357
tot  0.231  0.325  0.059  0.615
 
band   6 # energy    7.00437985 # occ.  0.00000000
 
ion      s      p      d    tot
  1  0.000  0.023  0.111  0.134
  2  0.000  0.216  0.038  0.254
tot  0.000  0.239  0.149  0.388
 
band   7 # energy    7.53325616 # occ.  0.00000000
 
ion      s      p      d    tot
  1  0.000  0.411  0.034  0.445
  2  0.107  0.000  0.026  0.133
tot  0.107  0.411  0.061  0.578
 
band   8 # energy    8.33130584 # occ.  0.00000000
 
ion      s      p      d    tot
  1  0.000  0.262  0.074  0.336
  2  0.000  0.003  0.083  0.086
tot  0.000  0.264  0.158  0.422
 
