  96  96   0   0
  0.2080188E+02  0.1257760E-08  0.1245754E-08  0.1274818E-08  0.5000000E-15
  1.000000000000000E-004
  CAR 
 MAPbI3-Cubic                            
      8.86580894    -19.48277417  301      1.35343442      1.00000000
    -19.483  0.0000E+00  0.0000E+00
    -19.388  0.0000E+00  0.0000E+00
    -19.294  0.0000E+00  0.0000E+00
    -19.199  0.0000E+00  0.0000E+00
    -19.105  0.0000E+00  0.0000E+00
    -19.010  0.0000E+00  0.0000E+00
    -18.916  0.0000E+00  0.0000E+00
    -18.821  0.0000E+00  0.0000E+00
    -18.727  0.0000E+00  0.0000E+00
    -18.632  0.0000E+00  0.0000E+00
    -18.538  0.0000E+00  0.0000E+00
    -18.443  0.0000E+00  0.0000E+00
    -18.349  0.0000E+00  0.0000E+00
    -18.254  0.0000E+00  0.0000E+00
    -18.160  0.0000E+00  0.1600E+02
    -18.065  0.0000E+00  0.1600E+02
    -17.971  0.0000E+00  0.1600E+02
    -17.876  0.0000E+00  0.1600E+02
    -17.782  0.0000E+00  0.1600E+02
    -17.687  0.0000E+00  0.1600E+02
    -17.593  0.0000E+00  0.1600E+02
    -17.498  0.0000E+00  0.1600E+02
    -17.404  0.0000E+00  0.1600E+02
    -17.309  0.0000E+00  0.1600E+02
    -17.215  0.0000E+00  0.1600E+02
    -17.120  0.0000E+00  0.1600E+02
    -17.026  0.0000E+00  0.1600E+02
    -16.931  0.0000E+00  0.1600E+02
    -16.837  0.0000E+00  0.1600E+02
    -16.742  0.0000E+00  0.1600E+02
    -16.648  0.0000E+00  0.1600E+02
    -16.553  0.0000E+00  0.1600E+02
    -16.459  0.0000E+00  0.1600E+02
    -16.364  0.0000E+00  0.1600E+02
    -16.270  0.0000E+00  0.1600E+02
    -16.175  0.0000E+00  0.1600E+02
    -16.081  0.0000E+00  0.1600E+02
    -15.986  0.0000E+00  0.1600E+02
    -15.892  0.0000E+00  0.1600E+02
    -15.797  0.0000E+00  0.1600E+02
    -15.703  0.0000E+00  0.1600E+02
    -15.608  0.0000E+00  0.1600E+02
    -15.514  0.0000E+00  0.1600E+02
    -15.419  0.0000E+00  0.1600E+02
    -15.325  0.0000E+00  0.1600E+02
    -15.230  0.0000E+00  0.1600E+02
    -15.136  0.0000E+00  0.1600E+02
    -15.041  0.1693E+03  0.8000E+02
    -14.947  0.0000E+00  0.9600E+02
    -14.853  0.0000E+00  0.9600E+02
    -14.758  0.0000E+00  0.9600E+02
    -14.664  0.0000E+00  0.9600E+02
    -14.569  0.0000E+00  0.9600E+02
    -14.475  0.0000E+00  0.9600E+02
    -14.380  0.0000E+00  0.9600E+02
    -14.286  0.0000E+00  0.9600E+02
    -14.191  0.0000E+00  0.9600E+02
    -14.097  0.0000E+00  0.9600E+02
    -14.002  0.0000E+00  0.9600E+02
    -13.908  0.0000E+00  0.9600E+02
    -13.813  0.0000E+00  0.9600E+02
    -13.719  0.0000E+00  0.9600E+02
    -13.624  0.0000E+00  0.9600E+02
    -13.530  0.0000E+00  0.9600E+02
    -13.435  0.0000E+00  0.9600E+02
    -13.341  0.0000E+00  0.9600E+02
    -13.246  0.0000E+00  0.9600E+02
    -13.152  0.0000E+00  0.9600E+02
    -13.057  0.0000E+00  0.9600E+02
    -12.963  0.0000E+00  0.9600E+02
    -12.868  0.0000E+00  0.9600E+02
    -12.774  0.0000E+00  0.9600E+02
    -12.679  0.0000E+00  0.9600E+02
    -12.585  0.0000E+00  0.9600E+02
    -12.490  0.0000E+00  0.9600E+02
    -12.396  0.0000E+00  0.9600E+02
    -12.301  0.0000E+00  0.9600E+02
    -12.207  0.0000E+00  0.9600E+02
    -12.112  0.0000E+00  0.9600E+02
    -12.018  0.0000E+00  0.9600E+02
    -11.923  0.0000E+00  0.9600E+02
    -11.829  0.0000E+00  0.9600E+02
    -11.734  0.0000E+00  0.9600E+02
    -11.640  0.0000E+00  0.9600E+02
    -11.545  0.0000E+00  0.9600E+02
    -11.451  0.0000E+00  0.9600E+02
    -11.356  0.0000E+00  0.9600E+02
    -11.262  0.0000E+00  0.1040E+03
    -11.167  0.0000E+00  0.1120E+03
    -11.073  0.0000E+00  0.1120E+03
    -10.978  0.0000E+00  0.1120E+03
    -10.884  0.0000E+00  0.1120E+03
    -10.789  0.1118E+01  0.1125E+03
    -10.695  0.1452E-02  0.1141E+03
    -10.600  0.3138E+01  0.1195E+03
    -10.506  0.3136E+01  0.1264E+03
    -10.411  0.4592E+01  0.1291E+03
    -10.317  0.4703E+01  0.1345E+03
    -10.222  0.0000E+00  0.1400E+03
    -10.128  0.4722E+01  0.1440E+03
    -10.033  0.7865E+01  0.1499E+03
     -9.939  0.3622E+01  0.1580E+03
     -9.844  0.0000E+00  0.1600E+03
     -9.750  0.0000E+00  0.1600E+03
     -9.655  0.0000E+00  0.1600E+03
     -9.561  0.0000E+00  0.1600E+03
     -9.466  0.0000E+00  0.1600E+03
     -9.372  0.0000E+00  0.1600E+03
     -9.277  0.0000E+00  0.1600E+03
     -9.183  0.0000E+00  0.1600E+03
     -9.088  0.0000E+00  0.1600E+03
     -8.994  0.0000E+00  0.1600E+03
     -8.899  0.0000E+00  0.1600E+03
     -8.805  0.0000E+00  0.1600E+03
     -8.710  0.0000E+00  0.1600E+03
     -8.616  0.0000E+00  0.1600E+03
     -8.521  0.0000E+00  0.1600E+03
     -8.427  0.0000E+00  0.1600E+03
     -8.332  0.0000E+00  0.1600E+03
     -8.238  0.0000E+00  0.1600E+03
     -8.143  0.0000E+00  0.1600E+03
     -8.049  0.0000E+00  0.1600E+03
     -7.954  0.0000E+00  0.1600E+03
     -7.860  0.0000E+00  0.1600E+03
     -7.765  0.0000E+00  0.1600E+03
     -7.671  0.0000E+00  0.1680E+03
     -7.576  0.7523E+01  0.1860E+03
     -7.482  0.0000E+00  0.1920E+03
     -7.387  0.0000E+00  0.1920E+03
     -7.293  0.0000E+00  0.1920E+03
     -7.198  0.0000E+00  0.1920E+03
     -7.104  0.0000E+00  0.1920E+03
     -7.009  0.0000E+00  0.1921E+03
     -6.915  0.1568E+01  0.1924E+03
     -6.820  0.0000E+00  0.1925E+03
     -6.726  0.0000E+00  0.1934E+03
     -6.631  0.0000E+00  0.1943E+03
     -6.537  0.6271E+01  0.1953E+03
     -6.442  0.2265E-12  0.1964E+03
     -6.348  0.1010E+01  0.1989E+03
     -6.253  0.1894E-12  0.2003E+03
     -6.159  0.1908E+01  0.2017E+03
     -6.064  0.3131E-04  0.2036E+03
     -5.970  0.1302E-05  0.2054E+03
     -5.875  0.2161E-07  0.2064E+03
     -5.781  0.1797E+02  0.2133E+03
     -5.686  0.1568E+01  0.2226E+03
     -5.592  0.0000E+00  0.2235E+03
     -5.497  0.0000E+00  0.2239E+03
     -5.403  0.0000E+00  0.2240E+03
     -5.308  0.0000E+00  0.2240E+03
     -5.214  0.0000E+00  0.2240E+03
     -5.119  0.0000E+00  0.2240E+03
     -5.025  0.0000E+00  0.2240E+03
     -4.931  0.0000E+00  0.2240E+03
     -4.836  0.0000E+00  0.2240E+03
     -4.742  0.0000E+00  0.2240E+03
     -4.647  0.0000E+00  0.2240E+03
     -4.553  0.0000E+00  0.2240E+03
     -4.458  0.0000E+00  0.2240E+03
     -4.364  0.0000E+00  0.2240E+03
     -4.269  0.0000E+00  0.2240E+03
     -4.175  0.0000E+00  0.2240E+03
     -4.080  0.0000E+00  0.2240E+03
     -3.986  0.0000E+00  0.2240E+03
     -3.891  0.0000E+00  0.2240E+03
     -3.797  0.0000E+00  0.2240E+03
     -3.702  0.0000E+00  0.2240E+03
     -3.608  0.4405E+00  0.2240E+03
     -3.513  0.2435E+02  0.2440E+03
     -3.419  0.0000E+00  0.2560E+03
     -3.324  0.0000E+00  0.2560E+03
     -3.230  0.0000E+00  0.2560E+03
     -3.135  0.0000E+00  0.2560E+03
     -3.041  0.0000E+00  0.2560E+03
     -2.946  0.0000E+00  0.2560E+03
     -2.852  0.0000E+00  0.2560E+03
     -2.757  0.0000E+00  0.2560E+03
     -2.663  0.0000E+00  0.2560E+03
     -2.568  0.0000E+00  0.2560E+03
     -2.474  0.0000E+00  0.2560E+03
     -2.379  0.0000E+00  0.2560E+03
     -2.285  0.0000E+00  0.2560E+03
     -2.190  0.0000E+00  0.2560E+03
     -2.096  0.4720E+01  0.2565E+03
     -2.001  0.1605E+01  0.2587E+03
     -1.907  0.3136E+01  0.2616E+03
     -1.812  0.1545E+01  0.2635E+03
     -1.718  0.2646E+01  0.2660E+03
     -1.623  0.1568E+01  0.2689E+03
     -1.529  0.0000E+00  0.2726E+03
     -1.434  0.3349E+01  0.2759E+03
     -1.340  0.3136E+01  0.2788E+03
     -1.245  0.0000E+00  0.2799E+03
     -1.151  0.0000E+00  0.2800E+03
     -1.056  0.4354E+00  0.2800E+03
     -0.962  0.1597E+01  0.2814E+03
     -0.867  0.8620E+01  0.2863E+03
     -0.773  0.7837E+01  0.2928E+03
     -0.678  0.1037E+02  0.2984E+03
     -0.584  0.1572E+01  0.3025E+03
     -0.489  0.0000E+00  0.3057E+03
     -0.395  0.5578E+01  0.3101E+03
     -0.300  0.4995E+01  0.3151E+03
     -0.206  0.4044E+01  0.3215E+03
     -0.111  0.4697E+01  0.3283E+03
     -0.017  0.7696E+01  0.3342E+03
      0.078  0.1930E+01  0.3403E+03
      0.172  0.1018E+02  0.3488E+03
      0.267  0.5297E+01  0.3581E+03
      0.361  0.6043E+01  0.3644E+03
      0.456  0.4175E+01  0.3716E+03
      0.550  0.3824E-03  0.3807E+03
      0.645  0.5574E+01  0.3873E+03
      0.739  0.8905E-04  0.3931E+03
      0.834  0.1568E+01  0.3963E+03
      0.928  0.0000E+00  0.3981E+03
      1.023  0.0000E+00  0.3993E+03
      1.117  0.3099E+01  0.3996E+03
      1.212  0.3403E-09  0.3998E+03
      1.306  0.0000E+00  0.3999E+03
      1.401  0.0000E+00  0.4000E+03
      1.495  0.0000E+00  0.4000E+03
      1.590  0.0000E+00  0.4000E+03
      1.684  0.0000E+00  0.4000E+03
      1.779  0.0000E+00  0.4000E+03
      1.873  0.0000E+00  0.4000E+03
      1.968  0.0000E+00  0.4000E+03
      2.062  0.0000E+00  0.4000E+03
      2.157  0.0000E+00  0.4000E+03
      2.251  0.0000E+00  0.4000E+03
      2.346  0.0000E+00  0.4000E+03
      2.440  0.0000E+00  0.4000E+03
      2.535  0.0000E+00  0.4000E+03
      2.629  0.0000E+00  0.4000E+03
      2.724  0.0000E+00  0.4000E+03
      2.818  0.0000E+00  0.4000E+03
      2.913  0.0000E+00  0.4000E+03
      3.007  0.0000E+00  0.4005E+03
      3.102  0.0000E+00  0.4007E+03
      3.196  0.3467E+01  0.4018E+03
      3.291  0.1549E+01  0.4030E+03
      3.385  0.4658E+01  0.4041E+03
      3.480  0.0000E+00  0.4059E+03
      3.574  0.0000E+00  0.4067E+03
      3.669  0.1568E+01  0.4079E+03
      3.763  0.0000E+00  0.4084E+03
      3.858  0.3136E+01  0.4093E+03
      3.952  0.1075E-05  0.4102E+03
      4.047  0.1568E+01  0.4113E+03
      4.141  0.4058E+00  0.4137E+03
      4.236  0.4343E-06  0.4160E+03
      4.330  0.2656E+01  0.4185E+03
      4.425  0.1568E+01  0.4212E+03
      4.519  0.9579E+00  0.4228E+03
      4.614  0.0000E+00  0.4239E+03
      4.708  0.0000E+00  0.4240E+03
      4.803  0.0000E+00  0.4240E+03
      4.897  0.0000E+00  0.4240E+03
      4.992  0.0000E+00  0.4240E+03
      5.086  0.0000E+00  0.4241E+03
      5.180  0.1568E+01  0.4245E+03
      5.275  0.5699E+01  0.4265E+03
      5.369  0.3136E+01  0.4287E+03
      5.464  0.1568E+01  0.4329E+03
      5.558  0.4697E+01  0.4359E+03
      5.653  0.0000E+00  0.4388E+03
      5.747  0.1003E-05  0.4407E+03
      5.842  0.3177E+01  0.4430E+03
      5.936  0.3132E+01  0.4460E+03
      6.031  0.2728E+01  0.4485E+03
      6.125  0.3136E+01  0.4527E+03
      6.220  0.6839E+01  0.4575E+03
      6.314  0.0000E+00  0.4606E+03
      6.409  0.3135E+01  0.4641E+03
      6.503  0.9410E+01  0.4679E+03
      6.598  0.3933E+01  0.4736E+03
      6.692  0.3908E+01  0.4771E+03
      6.787  0.8623E+01  0.4812E+03
      6.881  0.3948E+01  0.4847E+03
      6.976  0.3140E+01  0.4879E+03
      7.070  0.3790E+01  0.4924E+03
      7.165  0.3136E+01  0.4970E+03
      7.259  0.7057E+01  0.5003E+03
      7.354  0.0000E+00  0.5045E+03
      7.448  0.0000E+00  0.5093E+03
      7.543  0.7839E+00  0.5114E+03
      7.637  0.0000E+00  0.5120E+03
      7.732  0.0000E+00  0.5120E+03
      7.826  0.0000E+00  0.5120E+03
      7.921  0.0000E+00  0.5120E+03
      8.015  0.0000E+00  0.5120E+03
      8.110  0.0000E+00  0.5120E+03
      8.204  0.0000E+00  0.5120E+03
      8.299  0.0000E+00  0.5120E+03
      8.393  0.0000E+00  0.5120E+03
      8.488  0.0000E+00  0.5120E+03
      8.582  0.0000E+00  0.5120E+03
      8.677  0.0000E+00  0.5120E+03
      8.771  0.0000E+00  0.5120E+03
      8.866  0.0000E+00  0.5120E+03
