 running on   96 total cores
 distrk:  each k-point on   24 cores,    4 groups
 distr:  one band on    3 cores,    8 groups
 using from now: INCAR     
 vasp.5.4.1 24Jun15 (build Nov 25 2015 16:01:35) complex                        
  
 POSCAR found type information on POSCAR  C  N  H  Pb I 
 POSCAR found :  5 types and      96 ions
 scaLAPACK will be used

 ----------------------------------------------------------------------------- 
|                                                                             |
|           W    W    AA    RRRRR   N    N  II  N    N   GGGG   !!!           |
|           W    W   A  A   R    R  NN   N  II  NN   N  G    G  !!!           |
|           W    W  A    A  R    R  N N  N  II  N N  N  G       !!!           |
|           W WW W  AAAAAA  RRRRR   N  N N  II  N  N N  G  GGG   !            |
|           WW  WW  A    A  R   R   N   NN  II  N   NN  G    G                |
|           W    W  A    A  R    R  N    N  II  N    N   GGGG   !!!           |
|                                                                             |
|      For optimal performance we recommend to set                            |
|        NCORE= 4 - approx SQRT( number of cores)                             |
|      NCORE specifies how many cores store one orbital (NPAR=cpu/NCORE).     |
|      This setting can  greatly improve the performance of VASP for DFT.     |
|      The default, NPAR=number of cores might be grossly inefficient         |
|      on modern multi-core architectures or massively parallel machines.     |
|      Do your own testing !!!!                                               |
|      Unfortunately you need to use the default for GW and RPA calculations. |
|      (for HF NCORE is supported but not extensively tested yet)             |
|                                                                             |
 ----------------------------------------------------------------------------- 


 ----------------------------------------------------------------------------- 
|                                                                             |
|           W    W    AA    RRRRR   N    N  II  N    N   GGGG   !!!           |
|           W    W   A  A   R    R  NN   N  II  NN   N  G    G  !!!           |
|           W    W  A    A  R    R  N N  N  II  N N  N  G       !!!           |
|           W WW W  AAAAAA  RRRRR   N  N N  II  N  N N  G  GGG   !            |
|           WW  WW  A    A  R   R   N   NN  II  N   NN  G    G                |
|           W    W  A    A  R    R  N    N  II  N    N   GGGG   !!!           |
|                                                                             |
|      You have enabled k-point parallelism (KPAR>1).                         |
|      This developmental code was originally  written by Paul Kent at ORNL,  |
|      and carefully double checked in Vienna.                                |
|      GW as well as linear response parallelism added by Martijn Marsman     |
|      and Georg Kresse.                                                      |
|      Carefully verify results versus KPAR=1.                                |
|      Report problems to Paul Kent and Vienna.                               |
|                                                                             |
 ----------------------------------------------------------------------------- 


 ----------------------------------------------------------------------------- 
|                                                                             |
|  ADVICE TO THIS USER RUNNING 'VASP/VAMP'   (HEAR YOUR MASTER'S VOICE ...):  |
|                                                                             |
|      You have a (more or less) 'large supercell' and for larger cells       |
|      it might be more efficient to use real space projection opertators     |
|      So try LREAL= Auto  in the INCAR   file.                               |
|      Mind: At the moment your POTCAR file does not contain real space       |
|       projectors, and has to be modified,  BUT if you                       |
|      want to do an extremely  accurate calculation you might also keep the  |
|      reciprocal projection scheme          (i.e. LREAL=.FALSE.)             |
|                                                                             |
 ----------------------------------------------------------------------------- 


 ----------------------------------------------------------------------------- 
|                                                                             |
|  ADVICE TO THIS USER RUNNING 'VASP/VAMP'   (HEAR YOUR MASTER'S VOICE ...):  |
|                                                                             |
|      You enforced a specific xc-type in the INCAR file,                     |
|      a different type was found on the POTCAR file                          |
|          I HOPE YOU KNOW, WHAT YOU ARE  DOING                               |
|                                                                             |
 ----------------------------------------------------------------------------- 

 LDA part: xc-table for Pade appr. of Perdew
 POSCAR, INCAR and KPOINTS ok, starting setup
 WARNING: small aliasing (wrap around) errors must be expected
 FFT: planning ...
 WAVECAR not read
 entering main loop
       N       E                     dE             d eps       ncg     rms          rms(c)
DAV:   1     0.359750104074E+04    0.35975E+04   -0.18944E+05  7176   0.170E+03
DAV:   2     0.195655999964E+03   -0.34018E+04   -0.32092E+04  8032   0.354E+02
DAV:   3    -0.398126978585E+03   -0.59378E+03   -0.58536E+03  9416   0.171E+02
DAV:   4    -0.438365134192E+03   -0.40238E+02   -0.40064E+02  9624   0.491E+01
DAV:   5    -0.439919572097E+03   -0.15544E+01   -0.15521E+01  9784   0.934E+00    0.295E+01
DAV:   6    -0.419528853094E+03    0.20391E+02   -0.41212E+01  9568   0.103E+01    0.156E+01
DAV:   7    -0.417065258759E+03    0.24636E+01   -0.14581E+01 10256   0.639E+00    0.777E+00
DAV:   8    -0.416892840000E+03    0.17242E+00   -0.30585E+00  8552   0.319E+00    0.182E+00
DAV:   9    -0.416821534036E+03    0.71306E-01   -0.74015E-01  9376   0.174E+00    0.726E-01
DAV:  10    -0.416833549263E+03   -0.12015E-01   -0.11142E-01  9032   0.592E-01    0.467E-01
DAV:  11    -0.416833175414E+03    0.37385E-03   -0.13656E-02  9776   0.273E-01    0.206E-01
DAV:  12    -0.416834584777E+03   -0.14094E-02   -0.98480E-03  9848   0.159E-01    0.109E-01
DAV:  13    -0.416834727690E+03   -0.14291E-03   -0.14328E-03  8384   0.802E-02    0.756E-02
DAV:  14    -0.416834772619E+03   -0.44929E-04   -0.27694E-04  8616   0.293E-02    0.359E-02
DAV:  15    -0.416834817566E+03   -0.44947E-04   -0.18837E-04  8248   0.226E-02    0.130E-02
DAV:  16    -0.416834821997E+03   -0.44307E-05   -0.18389E-05 10312   0.850E-03    0.136E-02
DAV:  17    -0.416834821833E+03    0.16398E-06   -0.33987E-06  8392   0.339E-03    0.677E-03
DAV:  18    -0.416834821788E+03    0.45380E-07   -0.10511E-05 10016   0.514E-03    0.351E-03
DAV:  19    -0.416834821858E+03   -0.70311E-07   -0.10764E-06  8864   0.233E-03    0.290E-03
DAV:  20    -0.416834821852E+03    0.60318E-08   -0.45502E-07  9272   0.108E-03    0.537E-04
DAV:  21    -0.416834821906E+03   -0.53609E-07   -0.69905E-08  9160   0.516E-04    0.344E-04
DAV:  22    -0.416834821893E+03    0.12580E-07   -0.36504E-09  8104   0.177E-04    0.238E-04
DAV:  23    -0.416834821895E+03   -0.23174E-08    0.67196E-10  8024   0.966E-05    0.222E-04
DAV:  24    -0.416834821893E+03    0.20300E-08    0.15269E-09  7344   0.539E-05    0.213E-04
DAV:  25    -0.416834821893E+03    0.34925E-09    0.17194E-09  6312   0.475E-05    0.221E-04
DAV:  26    -0.416834821895E+03   -0.23647E-08    0.17102E-09  4984   0.405E-05    0.210E-04
DAV:  27    -0.416834821896E+03   -0.95679E-09    0.21168E-09  4792   0.239E-05    0.210E-04
DAV:  28    -0.416834821897E+03   -0.21464E-09    0.19805E-09  4256   0.151E-05    0.210E-04
DAV:  29    -0.416834821896E+03    0.66939E-09    0.16988E-09  4256   0.110E-05    0.209E-04
DAV:  30    -0.416834821896E+03   -0.28376E-09    0.18817E-09  4256   0.900E-06    0.209E-04
DAV:  31    -0.416834821896E+03    0.52751E-09    0.15810E-09  4256   0.526E-06    0.209E-04
DAV:  32    -0.416834821896E+03   -0.21100E-09    0.11019E-09  4224   0.430E-06    0.209E-04
DAV:  33    -0.416834821896E+03   -0.69122E-10    0.10778E-09  4192   0.251E-06    0.209E-04
DAV:  34    -0.416834821896E+03    0.94587E-10    0.79177E-10  4184   0.189E-06
   1 F= -.41683482E+03 E0= -.41683482E+03  d E =-.595914E-42
Application 22454137 resources: utime ~276006s, stime ~254s, Rss ~646580, inblocks ~880854, outblocks ~776292
