    2    2    1    1
  0.2002393E+02  0.3840297E-09  0.3840297E-09  0.3840297E-09  0.5000000E-15
  1.000000000000000E-004
  CAR 
 Name                                    
      8    216      8
 
  0.0000000E+00  0.0000000E+00  0.0000000E+00  0.4901961E-02
    1       -6.181781   1.000000
    2        5.776692   1.000000
    3        5.776692   1.000000
    4        5.776692   1.000000
    5        8.296693   0.000000
    6        8.296693   0.000000
    7        8.296693   0.000000
    8        8.983474   0.000000
 
  0.1666667E+00  0.0000000E+00  0.0000000E+00  0.3921569E-01
    1       -5.820430   1.000000
    2        3.379793   1.000000
    3        5.325482   1.000000
    4        5.325482   1.000000
    5        8.034505   0.000000
    6        8.943160   0.000000
    7        8.943160   0.000000
    8       11.092704   0.000000
 
  0.3333333E+00  0.0000000E+00  0.0000000E+00  0.3921569E-01
    1       -4.803316   1.000000
    2        0.424724   1.000000
    3        4.777655   1.000000
    4        4.777655   1.000000
    5        7.430393   0.000000
    6        9.233449   0.000000
    7        9.233449   0.000000
    8       13.449996   0.000000
 
  0.5000000E+00  0.0000000E+00  0.0000000E+00  0.1960784E-01
    1       -3.842898   1.000000
    2       -1.215787   1.000000
    3        4.580873   1.000000
    4        4.580873   1.000000
    5        7.202297   0.000000
    6        9.063763   0.000000
    7        9.063763   0.000000
    8       13.283848   0.000000
 
  0.1666667E+00  0.1666667E+00  0.0000000E+00  0.2941176E-01
    1       -5.697537   1.000000
    2        3.724355   1.000000
    3        4.579709   1.000000
    4        4.579709   1.000000
    5        7.403583   0.000000
    6        9.965692   0.000000
    7       10.073982   0.000000
    8       10.073983   0.000000
 
  0.3333333E+00  0.1666667E+00  0.0000000E+00  0.1176471E+00
    1       -4.881615   1.000000
    2        1.328899   1.000000
    3        3.767853   1.000000
    4        4.027906   1.000000
    5        7.657179   0.000000
    6        9.750742   0.000000
    7       10.222048   0.000000
    8       10.799006   0.000000
 
  0.5000000E+00  0.1666667E+00  0.0000000E+00  0.1176471E+00
    1       -3.685753   1.000000
    2       -0.844678   1.000000
    3        2.980171   1.000000
    4        3.999838   1.000000
    5        7.725253   0.000000
    6        9.804639   0.000000
    7       10.345441   0.000000
    8       12.101718   0.000000
 
 -0.3333333E+00  0.1666667E+00  0.0000000E+00  0.1176471E+00
    1       -4.072771   1.000000
    2       -0.243252   1.000000
    3        2.707655   1.000000
    4        4.480611   1.000000
    5        8.139622   0.000000
    6        9.807179   0.000000
    7        9.953570   0.000000
    8       12.962467   0.000000
 
 -0.1666667E+00  0.1666667E+00  0.0000000E+00  0.5882353E-01
    1       -5.231765   1.000000
    2        2.048432   1.000000
    3        3.343083   1.000000
    4        5.214066   1.000000
    5        8.740725   0.000000
    6        9.287243   0.000000
    7        9.540844   0.000000
    8       11.323564   0.000000
 
  0.3333333E+00  0.3333333E+00  0.0000000E+00  0.2941176E-01
    1       -4.277213   1.000000
    2        0.762224   1.000000
    3        3.356039   1.000000
    4        3.356039   1.000000
    5        6.401847   0.000000
    6        7.659218   0.000000
    7       12.965727   0.000000
    8       12.965730   0.000000
 
  0.5000000E+00  0.3333333E+00  0.0000000E+00  0.1176471E+00
    1       -3.112010   1.000000
    2       -0.788093   1.000000
    3        2.119516   1.000000
    4        3.220351   1.000000
    5        6.733686   0.000000
    6        8.400006   0.000000
    7       13.154740   0.000000
    8       13.159625   0.000000
 
 -0.3333333E+00  0.3333333E+00  0.0000000E+00  0.5882353E-01
    1       -2.912294   1.000000
    2       -0.995297   1.000000
    3        1.328780   1.000000
    4        3.663740   1.000000
    5        7.241221   0.000000
    6       11.481027   0.000000
    7       12.188036   0.000000
    8       12.753045   0.000000
 
  0.5000000E+00  0.5000000E+00  0.0000000E+00  0.1470588E-01
    1       -2.038015   1.000000
    2       -2.038015   1.000000
    3        2.922032   1.000000
    4        2.922032   1.000000
    5        6.375227   0.000000
    6        6.375227   0.000000
    7       15.751262   0.000000
    8       15.751766   0.000000
 
  0.5000000E+00  0.3333333E+00  0.1666667E+00  0.1176471E+00
    1       -3.890546   1.000000
    2        0.130271   1.000000
    3        2.180692   1.000000
    4        3.469288   1.000000
    5        8.548697   0.000000
    6        9.393330   0.000000
    7        9.933890   0.000000
    8       12.765268   0.000000
 
 -0.3333333E+00  0.3333333E+00  0.1666667E+00  0.1176471E+00
    1       -2.901876   1.000000
    2       -1.070962   1.000000
    3        1.737903   1.000000
    4        2.998084   1.000000
    5        9.041705   0.000000
    6        9.251513   0.000000
    7       11.784033   0.000000
    8       12.206036   0.000000
 
  0.4840000E+00  0.0000000E+00  0.4840000E+00  0.0000000E+00
    1       -2.282735   1.000000
    2       -1.787969   1.000000
    3        2.926080   1.000000
    4        2.926080   1.000000
    5        6.324697   0.000000
    6        6.437977   0.000000
    7       15.652410   0.000000
    8       15.652634   0.000000
 
  0.4840000E+00  0.2487560E-02  0.4840000E+00  0.0000000E+00
    1       -2.301504   1.000000
    2       -1.768307   1.000000
    3        2.926345   1.000000
    4        2.926776   1.000000
    5        6.321589   0.000000
    6        6.443677   0.000000
    7       15.637532   0.000000
    8       15.638707   0.000000
 
  0.4840000E+00  0.4975120E-02  0.4840000E+00  0.0000000E+00
    1       -2.320192   1.000000
    2       -1.748590   1.000000
    3        2.925877   1.000000
    4        2.927608   1.000000
    5        6.319179   0.000000
    6        6.450062   0.000000
    7       15.620708   0.000000
    8       15.622958   0.000000
 
  0.4840000E+00  0.7462690E-02  0.4840000E+00  0.0000000E+00
    1       -2.338797   1.000000
    2       -1.728820   1.000000
    3        2.924682   1.000000
    4        2.928576   1.000000
    5        6.317454   0.000000
    6        6.457145   0.000000
    7       15.602368   0.000000
    8       15.604071   0.000000
 
  0.4840000E+00  0.9950250E-02  0.4840000E+00  0.0000000E+00
    1       -2.357317   1.000000
    2       -1.708999   1.000000
    3        2.922766   1.000000
    4        2.929680   1.000000
    5        6.316389   0.000000
    6        6.464943   0.000000
    7       15.582813   0.000000
    8       15.585962   0.000000
 
  0.4840000E+00  0.1243781E-01  0.4840000E+00  0.0000000E+00
    1       -2.375752   1.000000
    2       -1.689130   1.000000
    3        2.920136   1.000000
    4        2.930919   1.000000
    5        6.315957   0.000000
    6        6.473477   0.000000
    7       15.559935   0.000000
    8       15.564645   0.000000
 
  0.4840000E+00  0.1492537E-01  0.4840000E+00  0.0000000E+00
    1       -2.394098   1.000000
    2       -1.669216   1.000000
    3        2.916802   1.000000
    4        2.932294   1.000000
    5        6.316127   0.000000
    6        6.482772   0.000000
    7       15.536385   0.000000
    8       15.542916   0.000000
 
  0.4840000E+00  0.1741293E-01  0.4840000E+00  0.0000000E+00
    1       -2.412355   1.000000
    2       -1.649260   1.000000
    3        2.912774   1.000000
    4        2.933805   1.000000
    5        6.316863   0.000000
    6        6.492853   0.000000
    7       15.511425   0.000000
    8       15.519842   0.000000
 
  0.4840000E+00  0.1990050E-01  0.4840000E+00  0.0000000E+00
    1       -2.430521   1.000000
    2       -1.629261   1.000000
    3        2.908061   1.000000
    4        2.935451   1.000000
    5        6.318130   0.000000
    6        6.503744   0.000000
    7       15.484797   0.000000
    8       15.495617   0.000000
 
  0.4840000E+00  0.2238806E-01  0.4840000E+00  0.0000000E+00
    1       -2.448596   1.000000
    2       -1.609227   1.000000
    3        2.902685   1.000000
    4        2.937233   1.000000
    5        6.319891   0.000000
    6        6.515469   0.000000
    7       15.457102   0.000000
    8       15.470279   0.000000
 
  0.4840000E+00  0.2487562E-01  0.4840000E+00  0.0000000E+00
    1       -2.466576   1.000000
    2       -1.589161   1.000000
    3        2.896655   1.000000
    4        2.939149   1.000000
    5        6.322109   0.000000
    6        6.528050   0.000000
    7       15.427527   0.000000
    8       15.443070   0.000000
 
  0.4840000E+00  0.2736318E-01  0.4840000E+00  0.0000000E+00
    1       -2.484461   1.000000
    2       -1.569066   1.000000
    3        2.889994   1.000000
    4        2.941198   1.000000
    5        6.324750   0.000000
    6        6.541509   0.000000
    7       15.396909   0.000000
    8       15.415251   0.000000
 
  0.4840000E+00  0.2985075E-01  0.4840000E+00  0.0000000E+00
    1       -2.502252   1.000000
    2       -1.548943   1.000000
    3        2.882712   1.000000
    4        2.943385   1.000000
    5        6.327781   0.000000
    6        6.555860   0.000000
    7       15.365174   0.000000
    8       15.386027   0.000000
 
  0.4840000E+00  0.3233831E-01  0.4840000E+00  0.0000000E+00
    1       -2.519945   1.000000
    2       -1.528796   1.000000
    3        2.874832   1.000000
    4        2.945707   1.000000
    5        6.331169   0.000000
    6        6.571119   0.000000
    7       15.332284   0.000000
    8       15.355822   0.000000
 
  0.4840000E+00  0.3482587E-01  0.4840000E+00  0.0000000E+00
    1       -2.537541   1.000000
    2       -1.508629   1.000000
    3        2.866373   1.000000
    4        2.948164   1.000000
    5        6.334886   0.000000
    6        6.587296   0.000000
    7       15.298260   0.000000
    8       15.324115   0.000000
 
  0.4840000E+00  0.3731343E-01  0.4840000E+00  0.0000000E+00
    1       -2.555035   1.000000
    2       -1.488445   1.000000
    3        2.857358   1.000000
    4        2.950758   1.000000
    5        6.338905   0.000000
    6        6.604399   0.000000
    7       15.263255   0.000000
    8       15.291634   0.000000
 
  0.4840000E+00  0.3980099E-01  0.4840000E+00  0.0000000E+00
    1       -2.572431   1.000000
    2       -1.468249   1.000000
    3        2.847809   1.000000
    4        2.953484   1.000000
    5        6.343204   0.000000
    6        6.622432   0.000000
    7       15.227965   0.000000
    8       15.261806   0.000000
 
  0.4840000E+00  0.4228856E-01  0.4840000E+00  0.0000000E+00
    1       -2.589726   1.000000
    2       -1.448044   1.000000
    3        2.837747   1.000000
    4        2.956344   1.000000
    5        6.347760   0.000000
    6        6.641395   0.000000
    7       15.190493   0.000000
    8       15.224517   0.000000
 
  0.4840000E+00  0.4477612E-01  0.4840000E+00  0.0000000E+00
    1       -2.606918   1.000000
    2       -1.427833   1.000000
    3        2.827198   1.000000
    4        2.959339   1.000000
    5        6.352555   0.000000
    6        6.661285   0.000000
    7       15.152648   0.000000
    8       15.188094   0.000000
 
  0.4840000E+00  0.4726368E-01  0.4840000E+00  0.0000000E+00
    1       -2.624007   1.000000
    2       -1.407617   1.000000
    3        2.816184   1.000000
    4        2.962468   1.000000
    5        6.357575   0.000000
    6        6.682099   0.000000
    7       15.114121   0.000000
    8       15.151796   0.000000
 
  0.4840000E+00  0.4975124E-01  0.4840000E+00  0.0000000E+00
    1       -2.640992   1.000000
    2       -1.387410   1.000000
    3        2.804729   1.000000
    4        2.965730   1.000000
    5        6.362805   0.000000
    6        6.703827   0.000000
    7       15.074832   0.000000
    8       15.114415   0.000000
 
  0.4840000E+00  0.5223880E-01  0.4840000E+00  0.0000000E+00
    1       -2.657872   1.000000
    2       -1.367211   1.000000
    3        2.792859   1.000000
    4        2.969126   1.000000
    5        6.368233   0.000000
    6        6.726459   0.000000
    7       15.034821   0.000000
    8       15.076226   0.000000
 
  0.4840000E+00  0.5472637E-01  0.4840000E+00  0.0000000E+00
    1       -2.674646   1.000000
    2       -1.347025   1.000000
    3        2.780598   1.000000
    4        2.972655   1.000000
    5        6.373851   0.000000
    6        6.749985   0.000000
    7       14.994154   0.000000
    8       15.037274   0.000000
 
  0.4840000E+00  0.5721393E-01  0.4840000E+00  0.0000000E+00
    1       -2.691313   1.000000
    2       -1.326857   1.000000
    3        2.767972   1.000000
    4        2.976318   1.000000
    5        6.379649   0.000000
    6        6.774390   0.000000
    7       14.952880   0.000000
    8       14.997550   0.000000
 
  0.4840000E+00  0.5970149E-01  0.4840000E+00  0.0000000E+00
    1       -2.707873   1.000000
    2       -1.306711   1.000000
    3        2.755004   1.000000
    4        2.980113   1.000000
    5        6.385623   0.000000
    6        6.799658   0.000000
    7       14.911007   0.000000
    8       14.956990   0.000000
 
  0.4840000E+00  0.6218905E-01  0.4840000E+00  0.0000000E+00
    1       -2.724324   1.000000
    2       -1.286594   1.000000
    3        2.741722   1.000000
    4        2.984042   1.000000
    5        6.391766   0.000000
    6        6.825775   0.000000
    7       14.868616   0.000000
    8       14.915763   0.000000
 
  0.4840000E+00  0.6467661E-01  0.4840000E+00  0.0000000E+00
    1       -2.740667   1.000000
    2       -1.266510   1.000000
    3        2.728150   1.000000
    4        2.988103   1.000000
    5        6.398074   0.000000
    6        6.852722   0.000000
    7       14.825722   0.000000
    8       14.873878   0.000000
 
  0.4840000E+00  0.6716418E-01  0.4840000E+00  0.0000000E+00
    1       -2.756899   1.000000
    2       -1.246465   1.000000
    3        2.714313   1.000000
    4        2.992296   1.000000
    5        6.404544   0.000000
    6        6.880483   0.000000
    7       14.782425   0.000000
    8       14.831308   0.000000
 
  0.4840000E+00  0.6965174E-01  0.4840000E+00  0.0000000E+00
    1       -2.773021   1.000000
    2       -1.226464   1.000000
    3        2.700236   1.000000
    4        2.996621   1.000000
    5        6.411174   0.000000
    6        6.909039   0.000000
    7       14.738633   0.000000
    8       14.788186   0.000000
 
  0.4840000E+00  0.7213930E-01  0.4840000E+00  0.0000000E+00
    1       -2.789032   1.000000
    2       -1.206510   1.000000
    3        2.685944   1.000000
    4        3.001080   1.000000
    5        6.417960   0.000000
    6        6.938372   0.000000
    7       14.694401   0.000000
    8       14.744379   0.000000
 
  0.4840000E+00  0.7462686E-01  0.4840000E+00  0.0000000E+00
    1       -2.804936   1.000000
    2       -1.186618   1.000000
    3        2.671461   1.000000
    4        3.005669   1.000000
    5        6.424902   0.000000
    6        6.968463   0.000000
    7       14.649852   0.000000
    8       14.700030   0.000000
 
  0.4840000E+00  0.7711443E-01  0.4840000E+00  0.0000000E+00
    1       -2.820722   1.000000
    2       -1.166788   1.000000
    3        2.656814   1.000000
    4        3.010389   1.000000
    5        6.431998   0.000000
    6        6.999294   0.000000
    7       14.604949   0.000000
    8       14.655185   0.000000
 
  0.4840000E+00  0.7960199E-01  0.4840000E+00  0.0000000E+00
    1       -2.836396   1.000000
    2       -1.147029   1.000000
    3        2.642027   1.000000
    4        3.015239   1.000000
    5        6.439248   0.000000
    6        7.030847   0.000000
    7       14.559737   0.000000
    8       14.609809   0.000000
 
  0.4840000E+00  0.8208955E-01  0.4840000E+00  0.0000000E+00
    1       -2.851956   1.000000
    2       -1.127346   1.000000
    3        2.627121   1.000000
    4        3.020221   1.000000
    5        6.446650   0.000000
    6        7.063102   0.000000
    7       14.514240   0.000000
    8       14.563968   0.000000
 
  0.4840000E+00  0.8457711E-01  0.4840000E+00  0.0000000E+00
    1       -2.867402   1.000000
    2       -1.107748   1.000000
    3        2.612124   1.000000
    4        3.025332   1.000000
    5        6.454206   0.000000
    6        7.096043   0.000000
    7       14.468487   0.000000
    8       14.517678   0.000000
 
  0.4840000E+00  0.8706468E-01  0.4840000E+00  0.0000000E+00
    1       -2.882734   1.000000
    2       -1.088241   1.000000
    3        2.597059   1.000000
    4        3.030574   1.000000
    5        6.461914   0.000000
    6        7.129653   0.000000
    7       14.422484   0.000000
    8       14.470957   0.000000
 
  0.4840000E+00  0.8955224E-01  0.4840000E+00  0.0000000E+00
    1       -2.897950   1.000000
    2       -1.068833   1.000000
    3        2.581948   1.000000
    4        3.035946   1.000000
    5        6.469774   0.000000
    6        7.163912   0.000000
    7       14.376349   0.000000
    8       14.423860   0.000000
 
  0.4840000E+00  0.9203980E-01  0.4840000E+00  0.0000000E+00
    1       -2.913051   1.000000
    2       -1.049532   1.000000
    3        2.566815   1.000000
    4        3.041446   1.000000
    5        6.477787   0.000000
    6        7.198804   0.000000
    7       14.329844   0.000000
    8       14.376327   0.000000
 
  0.4840000E+00  0.9452736E-01  0.4840000E+00  0.0000000E+00
    1       -2.928035   1.000000
    2       -1.030347   1.000000
    3        2.551683   1.000000
    4        3.047076   1.000000
    5        6.485952   0.000000
    6        7.234314   0.000000
    7       14.283469   0.000000
    8       14.328717   0.000000
 
  0.4840000E+00  0.9701493E-01  0.4840000E+00  0.0000000E+00
    1       -2.942901   1.000000
    2       -1.011284   1.000000
    3        2.536577   1.000000
    4        3.052834   1.000000
    5        6.494270   0.000000
    6        7.270424   0.000000
    7       14.236481   0.000000
    8       14.280242   0.000000
 
  0.4840000E+00  0.9950249E-01  0.4840000E+00  0.0000000E+00
    1       -2.957652   1.000000
    2       -0.992355   1.000000
    3        2.521515   1.000000
    4        3.058720   1.000000
    5        6.502739   0.000000
    6        7.307119   0.000000
    7       14.189583   0.000000
    8       14.231707   0.000000
 
  0.4840000E+00  0.1019900E+00  0.4840000E+00  0.0000000E+00
    1       -2.972285   1.000000
    2       -0.973566   1.000000
    3        2.506524   1.000000
    4        3.064734   1.000000
    5        6.511362   0.000000
    6        7.344384   0.000000
    7       14.142539   0.000000
    8       14.182874   0.000000
 
  0.4840000E+00  0.1044776E+00  0.4840000E+00  0.0000000E+00
    1       -2.986801   1.000000
    2       -0.954927   1.000000
    3        2.491626   1.000000
    4        3.070876   1.000000
    5        6.520138   0.000000
    6        7.382204   0.000000
    7       14.095396   0.000000
    8       14.133756   0.000000
 
  0.4840000E+00  0.1069652E+00  0.4840000E+00  0.0000000E+00
    1       -3.001198   1.000000
    2       -0.936448   1.000000
    3        2.476842   1.000000
    4        3.077144   1.000000
    5        6.529066   0.000000
    6        7.420566   0.000000
    7       14.048142   0.000000
    8       14.084372   0.000000
 
  0.4840000E+00  0.1094527E+00  0.4840000E+00  0.0000000E+00
    1       -3.015476   1.000000
    2       -0.918139   1.000000
    3        2.462193   1.000000
    4        3.083539   1.000000
    5        6.538148   0.000000
    6        7.459454   0.000000
    7       14.000808   0.000000
    8       14.034745   0.000000
 
  0.4840000E+00  0.1119403E+00  0.4840000E+00  0.0000000E+00
    1       -3.029636   1.000000
    2       -0.900009   1.000000
    3        2.447702   1.000000
    4        3.090059   1.000000
    5        6.547381   0.000000
    6        7.498854   0.000000
    7       13.953395   0.000000
    8       13.984882   0.000000
 
  0.4840000E+00  0.1144279E+00  0.4840000E+00  0.0000000E+00
    1       -3.043676   1.000000
    2       -0.882067   1.000000
    3        2.433391   1.000000
    4        3.096707   1.000000
    5        6.556770   0.000000
    6        7.538757   0.000000
    7       13.905924   0.000000
    8       13.934783   0.000000
 
  0.4840000E+00  0.1169154E+00  0.4840000E+00  0.0000000E+00
    1       -3.057596   1.000000
    2       -0.864326   1.000000
    3        2.419280   1.000000
    4        3.103482   1.000000
    5        6.566310   0.000000
    6        7.579149   0.000000
    7       13.858402   0.000000
    8       13.884480   0.000000
 
  0.4840000E+00  0.1194030E+00  0.4840000E+00  0.0000000E+00
    1       -3.071398   1.000000
    2       -0.846798   1.000000
    3        2.405390   1.000000
    4        3.110379   1.000000
    5        6.576002   0.000000
    6        7.620016   0.000000
    7       13.810843   0.000000
    8       13.833981   0.000000
 
  0.4840000E+00  0.1218905E+00  0.4840000E+00  0.0000000E+00
    1       -3.085078   1.000000
    2       -0.829492   1.000000
    3        2.391744   1.000000
    4        3.117399   1.000000
    5        6.585848   0.000000
    6        7.661348   0.000000
    7       13.763257   0.000000
    8       13.783308   0.000000
 
  0.4840000E+00  0.1243781E+00  0.4840000E+00  0.0000000E+00
    1       -3.098638   1.000000
    2       -0.812420   1.000000
    3        2.378363   1.000000
    4        3.124544   1.000000
    5        6.595846   0.000000
    6        7.703133   0.000000
    7       13.715653   0.000000
    8       13.732463   0.000000
 
  0.4840000E+00  0.1268657E+00  0.4840000E+00  0.0000000E+00
    1       -3.112077   1.000000
    2       -0.795593   1.000000
    3        2.365267   1.000000
    4        3.131811   1.000000
    5        6.605997   0.000000
    6        7.745361   0.000000
    7       13.668045   0.000000
    8       13.681471   0.000000
 
  0.4840000E+00  0.1293532E+00  0.4840000E+00  0.0000000E+00
    1       -3.125396   1.000000
    2       -0.779022   1.000000
    3        2.352476   1.000000
    4        3.139201   1.000000
    5        6.616300   0.000000
    6        7.788021   0.000000
    7       13.620426   0.000000
    8       13.630326   0.000000
 
  0.4840000E+00  0.1318408E+00  0.4840000E+00  0.0000000E+00
    1       -3.138593   1.000000
    2       -0.762721   1.000000
    3        2.340011   1.000000
    4        3.146712   1.000000
    5        6.626755   0.000000
    6        7.831102   0.000000
    7       13.572819   0.000000
    8       13.579041   0.000000
 
  0.4840000E+00  0.1343284E+00  0.4840000E+00  0.0000000E+00
    1       -3.151670   1.000000
    2       -0.746702   1.000000
    3        2.327892   1.000000
    4        3.154344   1.000000
    5        6.637361   0.000000
    6        7.874595   0.000000
    7       13.525234   0.000000
    8       13.527642   0.000000
 
  0.4840000E+00  0.1368159E+00  0.4840000E+00  0.0000000E+00
    1       -3.164625   1.000000
    2       -0.730975   1.000000
    3        2.316141   1.000000
    4        3.162098   1.000000
    5        6.648118   0.000000
    6        7.918492   0.000000
    7       13.476123   0.000000
    8       13.477670   0.000000
 
  0.4840000E+00  0.1393035E+00  0.4840000E+00  0.0000000E+00
    1       -3.177457   1.000000
    2       -0.715553   1.000000
    3        2.304779   1.000000
    4        3.169972   1.000000
    5        6.659027   0.000000
    6        7.962781   0.000000
    7       13.424504   0.000000
    8       13.430142   0.000000
 
  0.4840000E+00  0.1417911E+00  0.4840000E+00  0.0000000E+00
    1       -3.190169   1.000000
    2       -0.700450   1.000000
    3        2.293820   1.000000
    4        3.177966   1.000000
    5        6.670085   0.000000
    6        8.007454   0.000000
    7       13.372800   0.000000
    8       13.382651   0.000000
 
  0.4840000E+00  0.1442786E+00  0.4840000E+00  0.0000000E+00
    1       -3.202762   1.000000
    2       -0.685677   1.000000
    3        2.283288   1.000000
    4        3.186077   1.000000
    5        6.681293   0.000000
    6        8.052504   0.000000
    7       13.320986   0.000000
    8       13.335198   0.000000
 
  0.4840000E+00  0.1467662E+00  0.4840000E+00  0.0000000E+00
    1       -3.215229   1.000000
    2       -0.671248   1.000000
    3        2.273201   1.000000
    4        3.194309   1.000000
    5        6.692651   0.000000
    6        8.097921   0.000000
    7       13.269108   0.000000
    8       13.287805   0.000000
 
  0.4840000E+00  0.1492537E+00  0.4840000E+00  0.0000000E+00
    1       -3.227573   1.000000
    2       -0.657175   1.000000
    3        2.263578   1.000000
    4        3.202658   1.000000
    5        6.704157   0.000000
    6        8.143699   0.000000
    7       13.217159   0.000000
    8       13.240470   0.000000
 
  0.4840000E+00  0.1517413E+00  0.4840000E+00  0.0000000E+00
    1       -3.239794   1.000000
    2       -0.643472   1.000000
    3        2.254438   1.000000
    4        3.211124   1.000000
    5        6.715811   0.000000
    6        8.189828   0.000000
    7       13.165149   0.000000
    8       13.193201   0.000000
 
  0.4840000E+00  0.1542289E+00  0.4840000E+00  0.0000000E+00
    1       -3.251893   1.000000
    2       -0.630150   1.000000
    3        2.245799   1.000000
    4        3.219706   1.000000
    5        6.727612   0.000000
    6        8.236302   0.000000
    7       13.113089   0.000000
    8       13.146005   0.000000
 
  0.4840000E+00  0.1567164E+00  0.4840000E+00  0.0000000E+00
    1       -3.263868   1.000000
    2       -0.617221   1.000000
    3        2.237680   1.000000
    4        3.228404   1.000000
    5        6.739560   0.000000
    6        8.283113   0.000000
    7       13.060975   0.000000
    8       13.098879   0.000000
 
  0.4840000E+00  0.1592040E+00  0.4840000E+00  0.0000000E+00
    1       -3.275721   1.000000
    2       -0.604698   1.000000
    3        2.230097   1.000000
    4        3.237217   1.000000
    5        6.751653   0.000000
    6        8.330254   0.000000
    7       13.008825   0.000000
    8       13.051841   0.000000
 
  0.4840000E+00  0.1616915E+00  0.4840000E+00  0.0000000E+00
    1       -3.287451   1.000000
    2       -0.592593   1.000000
    3        2.223069   1.000000
    4        3.246144   1.000000
    5        6.763891   0.000000
    6        8.377718   0.000000
    7       12.956643   0.000000
    8       13.004883   0.000000
 
  0.4840000E+00  0.1641791E+00  0.4840000E+00  0.0000000E+00
    1       -3.299058   1.000000
    2       -0.580917   1.000000
    3        2.216609   1.000000
    4        3.255184   1.000000
    5        6.776273   0.000000
    6        8.425499   0.000000
    7       12.904433   0.000000
    8       12.958019   0.000000
 
  0.4840000E+00  0.1666667E+00  0.4840000E+00  0.0000000E+00
    1       -3.310542   1.000000
    2       -0.569681   1.000000
    3        2.210737   1.000000
    4        3.264336   1.000000
    5        6.788797   0.000000
    6        8.473590   0.000000
    7       12.852207   0.000000
    8       12.911254   0.000000
 
  0.4840000E+00  0.1691542E+00  0.4840000E+00  0.0000000E+00
    1       -3.321903   1.000000
    2       -0.558896   1.000000
    3        2.205466   1.000000
    4        3.273601   1.000000
    5        6.801463   0.000000
    6        8.521985   0.000000
    7       12.799962   0.000000
    8       12.864586   0.000000
 
  0.4840000E+00  0.1716418E+00  0.4840000E+00  0.0000000E+00
    1       -3.333143   1.000000
    2       -0.548573   1.000000
    3        2.200811   1.000000
    4        3.282976   1.000000
    5        6.814268   0.000000
    6        8.570675   0.000000
    7       12.747713   0.000000
    8       12.818025   0.000000
 
  0.4840000E+00  0.1741293E+00  0.4840000E+00  0.0000000E+00
    1       -3.344260   1.000000
    2       -0.538722   1.000000
    3        2.196786   1.000000
    4        3.292459   1.000000
    5        6.827214   0.000000
    6        8.619659   0.000000
    7       12.695469   0.000000
    8       12.771588   0.000000
 
  0.4840000E+00  0.1766169E+00  0.4840000E+00  0.0000000E+00
    1       -3.355251   1.000000
    2       -0.529351   1.000000
    3        2.193406   1.000000
    4        3.302053   1.000000
    5        6.840298   0.000000
    6        8.668929   0.000000
    7       12.643213   0.000000
    8       12.725237   0.000000
 
  0.4840000E+00  0.1791045E+00  0.4840000E+00  0.0000000E+00
    1       -3.366119   1.000000
    2       -0.520467   1.000000
    3        2.190682   1.000000
    4        3.311754   1.000000
    5        6.853519   0.000000
    6        8.718477   0.000000
    7       12.590976   0.000000
    8       12.679023   0.000000
 
  0.4840000E+00  0.1815920E+00  0.4840000E+00  0.0000000E+00
    1       -3.376864   1.000000
    2       -0.512083   1.000000
    3        2.188626   1.000000
    4        3.321563   1.000000
    5        6.866876   0.000000
    6        8.768300   0.000000
    7       12.538761   0.000000
    8       12.632927   0.000000
 
  0.4840000E+00  0.1840796E+00  0.4840000E+00  0.0000000E+00
    1       -3.387486   1.000000
    2       -0.504202   1.000000
    3        2.187248   1.000000
    4        3.331478   1.000000
    5        6.880367   0.000000
    6        8.818392   0.000000
    7       12.486566   0.000000
    8       12.586955   0.000000
 
  0.4840000E+00  0.1865672E+00  0.4840000E+00  0.0000000E+00
    1       -3.397985   1.000000
    2       -0.496831   1.000000
    3        2.186557   1.000000
    4        3.341499   1.000000
    5        6.893991   0.000000
    6        8.868747   0.000000
    7       12.434399   0.000000
    8       12.541114   0.000000
 