       N       E                     dE             d eps       ncg     rms          rms(c)
DAV:   1     0.648373404590E+01    0.64837E+01   -0.31604E+03  3456   0.746E+02
DAV:   2    -0.113668538350E+02   -0.17851E+02   -0.17704E+02  5192   0.817E+01
DAV:   3    -0.116028583132E+02   -0.23600E+00   -0.23600E+00  4704   0.121E+01
DAV:   4    -0.116040759734E+02   -0.12177E-02   -0.12177E-02  5224   0.100E+00
DAV:   5    -0.116040769937E+02   -0.10203E-05   -0.10203E-05  4696   0.249E-02
DAV:   6    -0.116040770019E+02   -0.82086E-08   -0.82086E-08  5160   0.149E-03
   1 F= -.11604077E+02 E0= -.11604077E+02  d E =-.116041E+02
