 vasp.5.4.1 24Jun15 (build Nov 25 2015 16:01:35) complex                        
  
 executed on         CrayXC-Intel date 2016.09.07  14:02:08
 running on   96 total cores
 distrk:  each k-point on   24 cores,    4 groups
 distr:  one band on NCORES_PER_BAND=   6 cores,    4 groups


--------------------------------------------------------------------------------------------------------


 INCAR:
 POTCAR:   PAW Si 02Apr1999                       

 ----------------------------------------------------------------------------- 
|                                                                             |
|           W    W    AA    RRRRR   N    N  II  N    N   GGGG   !!!           |
|           W    W   A  A   R    R  NN   N  II  NN   N  G    G  !!!           |
|           W    W  A    A  R    R  N N  N  II  N N  N  G       !!!           |
|           W WW W  AAAAAA  RRRRR   N  N N  II  N  N N  G  GGG   !            |
|           WW  WW  A    A  R   R   N   NN  II  N   NN  G    G                |
|           W    W  A    A  R    R  N    N  II  N    N   GGGG   !!!           |
|                                                                             |
|      You have enabled k-point parallelism (KPAR>1).                         |
|      This developmental code was originally  written by Paul Kent at ORNL,  |
|      and carefully double checked in Vienna.                                |
|      GW as well as linear response parallelism added by Martijn Marsman     |
|      and Georg Kresse.                                                      |
|      Carefully verify results versus KPAR=1.                                |
|      Report problems to Paul Kent and Vienna.                               |
|                                                                             |
 ----------------------------------------------------------------------------- 

 POTCAR:   PAW Si 02Apr1999                       
   VRHFIN =Si: s2p2                                                             
   LEXCH  = CA                                                                  
   EATOM  =   103.4338 eV,    7.6022 Ry                                         
                                                                                
   TITEL  = PAW Si 02Apr1999                                                    
   LULTRA =        F    use ultrasoft PP ?                                      
   IUNSCR =        1    unscreen: 0-lin 1-nonlin 2-no                           
   RPACOR =    1.500    partial core radius                                     
   POMASS =   28.085; ZVAL   =    4.000    mass and valenz                      
   RCORE  =    1.900    outmost cutoff radius                                   
   RWIGS  =    2.480; RWIGS  =    1.312    wigner-seitz radius (au A)           
   ENMAX  =  245.704; ENMIN  =  184.278 eV                                      
   ICORE  =        2    local potential                                         
   LCOR   =        T    correct aug charges                                     
   LPAW   =        T    paw PP                                                  
   EAUG   =  322.069                                                            
   DEXC   =    -.006                                                            
   RMAX   =    2.941    core radius for proj-oper                               
   RAUG   =    1.300    factor for augmentation sphere                          
   RDEP   =    1.993    core radius for depl-charge                             
   QCUT   =   -4.250; QGAM   =    8.499    optimization parameters              
                                                                                
   Description                                                                  
     l     E      TYP  RCUT    TYP  RCUT                                        
     0   .000     23  1.900                                                     
     0   .000     23  1.900                                                     
     1   .000     23  1.900                                                     
     1   .000     23  1.900                                                     
     2   .000      7  1.900                                                     
  local pseudopotential read in
  partial core-charges read in
  atomic valenz-charges read in
  non local Contribution for L=           0  read in
    real space projection operators read in
  non local Contribution for L=           0  read in
    real space projection operators read in
  non local Contribution for L=           1  read in
    real space projection operators read in
  non local Contribution for L=           1  read in
    real space projection operators read in
    PAW grid and wavefunctions read in
 
   number of l-projection  operators is LMAX  =           4
   number of lm-projection operators is LMMAX =           8
 
 PAW Si 02Apr1999                       :
 energy of atom  1       EATOM= -103.4338
 kinetic energy error for atom=    0.0006 (will be added to EATOM!!)
 
 
 POSCAR: Si (Madelung Handbook, 295.7K)          
  positions in direct lattice
  velocities in cartesian coordinates
 exchange correlation table for  LEXCH =        2
   RHO(1)=    0.500       N(1)  =     2000
   RHO(2)=  100.500       N(2)  =     4000
 


--------------------------------------------------------------------------------------------------------


 ion  position               nearest neighbor table
   1  0.000  0.000  0.000-   2 2.35   2 2.35   2 2.35   2 2.35
   2  0.250  0.250  0.250-   1 2.35   1 2.35   1 2.35   1 2.35
 
  LATTYP: Found a face centered cubic cell.
 ALAT       =     5.4310000000
  
  Lattice vectors:
  
 A1 = (   2.7155000000,   2.7155000000,   0.0000000000)
 A2 = (   2.7155000000,   0.0000000000,  -2.7155000000)
 A3 = (   0.0000000000,   2.7155000000,  -2.7155000000)


Analysis of symmetry for initial positions (statically):
=====================================================================
 Subroutine PRICEL returns:
 Original cell was already a primitive cell.
 

 Routine SETGRP: Setting up the symmetry group for a 
 face centered cubic supercell.


 Subroutine GETGRP returns: Found 48 space group operations
 (whereof 24 operations were pure point group operations)
 out of a pool of 48 trial point group operations.


The static configuration has the point symmetry T_d .
 The point group associated with its full space group is O_h .


Analysis of symmetry for dynamics (positions and initial velocities):
=====================================================================
 Subroutine PRICEL returns:
 Original cell was already a primitive cell.
 

 Routine SETGRP: Setting up the symmetry group for a 
 face centered cubic supercell.


 Subroutine GETGRP returns: Found 48 space group operations
 (whereof 24 operations were pure point group operations)
 out of a pool of 48 trial point group operations.


The dynamic configuration has the point symmetry T_d .
 The point group associated with its full space group is O_h .


 Subroutine INISYM returns: Found 48 space group operations
 (whereof 24 operations are pure point group operations),
 and found     1 'primitive' translations

 
 
 KPOINTS: Automatically generated mesh: SCF=15,201
  k-points in reciprocal lattice
Space group operators:
 irot       det(A)        alpha          n_x          n_y          n_z        tau_x        tau_y        tau_z
    1     1.000000     0.000001     1.000000     0.000000     0.000000     0.000000     0.000000     0.000000
    2     1.000000   120.000000    -0.577350    -0.577350     0.577350     0.000000     0.000000     0.000000
    3     1.000000   120.000000     0.577350     0.577350    -0.577350     0.000000     0.000000     0.000000
    4    -1.000000    90.000000    -1.000000     0.000000     0.000000     0.000000     0.000000     0.000000
    5    -1.000000   180.000000     0.707107     0.707107     0.000000     0.000000     0.000000     0.000000
    6    -1.000000    90.000000     0.000000     1.000000     0.000000     0.000000     0.000000     0.000000
    7     1.000000   180.000000     1.000000     0.000000     0.000000     0.000000     0.000000     0.000000
    8     1.000000   120.000000     0.577350     0.577350     0.577350     0.000000     0.000000     0.000000
    9     1.000000   120.000000    -0.577350     0.577350     0.577350     0.000000     0.000000     0.000000
   10    -1.000000    90.000000     1.000000     0.000000     0.000000     0.000000     0.000000     0.000000
   11    -1.000000    90.000000     0.000000     0.000000     1.000000     0.000000     0.000000     0.000000
   12    -1.000000   180.000000     0.707107     0.000000    -0.707107     0.000000     0.000000     0.000000
   13     1.000000   120.000000     0.577350    -0.577350    -0.577350     0.000000     0.000000     0.000000
   14     1.000000   120.000000     0.577350    -0.577350     0.577350     0.000000     0.000000     0.000000
   15     1.000000   180.000000     0.000000     0.000000     1.000000     0.000000     0.000000     0.000000
   16    -1.000000    90.000000     0.000000    -1.000000     0.000000     0.000000     0.000000     0.000000
   17    -1.000000   180.000000     0.000000    -0.707107     0.707107     0.000000     0.000000     0.000000
   18    -1.000000    90.000000     0.000000     0.000000    -1.000000     0.000000     0.000000     0.000000
   19     1.000000   120.000000    -0.577350    -0.577350    -0.577350     0.000000     0.000000     0.000000
   20     1.000000   180.000000     0.000000     1.000000     0.000000     0.000000     0.000000     0.000000
   21     1.000000   120.000000    -0.577350     0.577350    -0.577350     0.000000     0.000000     0.000000
   22    -1.000000   180.000000     0.707107    -0.707107     0.000000     0.000000     0.000000     0.000000
   23    -1.000000   180.000000     0.000000     0.707107     0.707107     0.000000     0.000000     0.000000
   24    -1.000000   180.000000     0.707107     0.000000     0.707107     0.000000     0.000000     0.000000
   25    -1.000000     0.000001     1.000000     0.000000     0.000000     0.250000     0.250000     0.250000
   26    -1.000000   120.000000    -0.577350    -0.577350     0.577350     0.250000     0.250000     0.250000
   27    -1.000000   120.000000     0.577350     0.577350    -0.577350     0.250000     0.250000     0.250000
   28     1.000000    90.000000    -1.000000     0.000000     0.000000     0.250000     0.250000     0.250000
   29     1.000000   180.000000     0.707107     0.707107     0.000000     0.250000     0.250000     0.250000
   30     1.000000    90.000000     0.000000     1.000000     0.000000     0.250000     0.250000     0.250000
   31    -1.000000   180.000000     1.000000     0.000000     0.000000     0.250000     0.250000     0.250000
   32    -1.000000   120.000000     0.577350     0.577350     0.577350     0.250000     0.250000     0.250000
   33    -1.000000   120.000000    -0.577350     0.577350     0.577350     0.250000     0.250000     0.250000
   34     1.000000    90.000000     1.000000     0.000000     0.000000     0.250000     0.250000     0.250000
   35     1.000000    90.000000     0.000000     0.000000     1.000000     0.250000     0.250000     0.250000
   36     1.000000   180.000000     0.707107     0.000000    -0.707107     0.250000     0.250000     0.250000
   37    -1.000000   120.000000     0.577350    -0.577350    -0.577350     0.250000     0.250000     0.250000
   38    -1.000000   120.000000     0.577350    -0.577350     0.577350     0.250000     0.250000     0.250000
   39    -1.000000   180.000000     0.000000     0.000000     1.000000     0.250000     0.250000     0.250000
   40     1.000000    90.000000     0.000000    -1.000000     0.000000     0.250000     0.250000     0.250000
   41     1.000000   180.000000     0.000000    -0.707107     0.707107     0.250000     0.250000     0.250000
   42     1.000000    90.000000     0.000000     0.000000    -1.000000     0.250000     0.250000     0.250000
   43    -1.000000   120.000000    -0.577350    -0.577350    -0.577350     0.250000     0.250000     0.250000
   44    -1.000000   180.000000     0.000000     1.000000     0.000000     0.250000     0.250000     0.250000
   45    -1.000000   120.000000    -0.577350     0.577350    -0.577350     0.250000     0.250000     0.250000
   46     1.000000   180.000000     0.707107    -0.707107     0.000000     0.250000     0.250000     0.250000
   47     1.000000   180.000000     0.000000     0.707107     0.707107     0.250000     0.250000     0.250000
   48     1.000000   180.000000     0.707107     0.000000     0.707107     0.250000     0.250000     0.250000


--------------------------------------------------------------------------------------------------------




 Dimension of arrays:
   k-points           NKPTS =    216   k-points in BZ     NKDIM =    216   number of bands    NBANDS=      8
   number of dos      NEDOS =    301   number of ions     NIONS =      2
   non local maximal  LDIM  =      4   non local SUM 2l+1 LMDIM =      8
   total plane-waves  NPLWV =  21952
   max r-space proj   IRMAX =      1   max aug-charges    IRDMAX=  18525
   dimension x,y,z NGX =    28 NGY =   28 NGZ =   28
   dimension x,y,z NGXF=    56 NGYF=   56 NGZF=   56
   support grid    NGXF=    56 NGYF=   56 NGZF=   56
   ions per type =               2
 NGX,Y,Z   is equivalent  to a cutoff of  12.12, 12.12, 12.12 a.u.
 NGXF,Y,Z  is equivalent  to a cutoff of  24.24, 24.24, 24.24 a.u.


 I would recommend the setting:
   dimension x,y,z NGX =    28 NGY =   28 NGZ =   28
 SYSTEM =  Name                                    
 POSCAR =  Si (Madelung Handbook, 295.7K)          

 Startparameter for this run:
   NWRITE =      2    write-flag & timer
   PREC   = accura    normal or accurate (medium, high low for compatibility)
   ISTART =      0    job   : 0-new  1-cont  2-samecut
   ICHARG =     11    charge: 1-file 2-atom 10-const
   ISPIN  =      1    spin polarized calculation?
   LNONCOLLINEAR =      F non collinear calculations
   LSORBIT =      F    spin-orbit coupling
   INIWAV =      1    electr: 0-lowe 1-rand  2-diag
   LASPH  =      F    aspherical Exc in radial PAW
   METAGGA=      F    non-selfconsistent MetaGGA calc.

 Electronic Relaxation 1
   ENCUT  =  500.0 eV  36.75 Ry    6.06 a.u.   7.00  7.00  7.00*2*pi/ulx,y,z
   ENINI  =  500.0     initial cutoff
   ENAUG  =  322.1 eV  augmentation charge cutoff
   NELM   =     60;   NELMIN=  2; NELMDL=  0     # of ELM steps 
   EDIFF  = 0.1E-05   stopping-criterion for ELM
   LREAL  =      F    real-space projection
   NLSPLINE    = F    spline interpolate recip. space projectors
   LCOMPAT=      F    compatible to vasp.4.4
   GGA_COMPAT  = T    GGA compatible to vasp.4.4-vasp.4.6
   LMAXPAW     = -100 max onsite density
   LMAXMIX     =    2 max onsite mixed and CHGCAR
   VOSKOWN=      0    Vosko Wilk Nusair interpolation
   ROPT   =    0.00000
 Ionic relaxation
   EDIFFG = -.5E-02   stopping-criterion for IOM
   NSW    =      1    number of steps for IOM
   NBLOCK =      1;   KBLOCK =      1    inner block; outer block 
   IBRION =      2    ionic relax: 0-MD 1-quasi-New 2-CG
   NFREE  =      1    steps in history (QN), initial steepest desc. (CG)
   ISIF   =      3    stress and relaxation
   IWAVPR =     11    prediction:  0-non 1-charg 2-wave 3-comb
   ISYM   =      2    0-nonsym 1-usesym 2-fastsym
   LCORR  =      T    Harris-Foulkes like correction to forces

   POTIM  = 0.5000    time-step for ionic-motion
   TEIN   =    0.0    initial temperature
   TEBEG  =    0.0;   TEEND  =   0.0 temperature during run
   SMASS  =  -3.00    Nose mass-parameter (am)
   estimated Nose-frequenzy (Omega)   =  0.10E-29 period in steps =****** mass=  -0.337E-27a.u.
   SCALEE = 1.0000    scale energy and forces
   NPACO  =    256;   APACO  = 16.0  distance and # of slots for P.C.
   PSTRESS=    0.0 pullay stress

  Mass of Ions in am
   POMASS =  28.09
  Ionic Valenz
   ZVAL   =   4.00
  Atomic Wigner-Seitz radii
   RWIGS  =  -1.00
  virtual crystal weights 
   VCA    =   1.00
   NELECT =       8.0000    total number of electrons
   NUPDOWN=      -1.0000    fix difference up-down

 DOS related values:
   EMIN   =  10.00;   EMAX   =-10.00  energy-range for DOS
   EFERMI =   0.00
   ISMEAR =     0;   SIGMA  =   0.01  broadening in eV -4-tet -1-fermi 0-gaus

 Electronic relaxation 2 (details)
   IALGO  =     38    algorithm
   LDIAG  =      T    sub-space diagonalisation (order eigenvalues)
   LSUBROT=      F    optimize rotation matrix (better conditioning)
   TURBO    =      0    0=normal 1=particle mesh
   IRESTART =      0    0=no restart 2=restart with 2 vectors
   NREBOOT  =      0    no. of reboots
   NMIN     =      0    reboot dimension
   EREF     =   0.00    reference energy to select bands
   IMIX   =      4    mixing-type and parameters
     AMIX     =   0.40;   BMIX     =  1.00
     AMIX_MAG =   1.60;   BMIX_MAG =  1.00
     AMIN     =   0.01
     WC   =   100.;   INIMIX=   1;  MIXPRE=   1;  MAXMIX= -45

 Intra band minimization:
   WEIMIN = 0.0010     energy-eigenvalue tresh-hold
   EBREAK =  0.31E-07  absolut break condition
   DEPER  =   0.30     relativ break condition  

   TIME   =   0.40     timestep for ELM

  volume/ion in A,a.u.               =      20.02       135.13
  Fermi-wavevector in a.u.,A,eV,Ry     =   0.956999  1.808467 12.460868  0.915848
  Thomas-Fermi vector in A             =   2.085978
 
 Write flags
   LWAVE  =      T    write WAVECAR
   LCHARG =      T    write CHGCAR
   LVTOT  =      F    write LOCPOT, total local potential
   LVHAR  =      F    write LOCPOT, Hartree potential only
   LELF   =      F    write electronic localiz. function (ELF)
   LORBIT =     10    0 simple, 1 ext, 2 COOP (PROOUT)


 Dipole corrections
   LMONO  =      F    monopole corrections only (constant potential shift)
   LDIPOL =      F    correct potential (dipole corrections)
   IDIPOL =      0    1-x, 2-y, 3-z, 4-all directions 
   EPSILON=  1.0000000 bulk dielectric constant

 Core level calculations are selected ICORELEVEL =  1
 Exchange correlation treatment:
   GGA     =    --    GGA type
   LEXCH   =     2    internal setting for exchange type
   VOSKOWN=      0    Vosko Wilk Nusair interpolation
   LHFCALC =     F    Hartree Fock is set to
   LHFONE  =     F    Hartree Fock one center treatment
   AEXX    =    0.0000 exact exchange contribution

 Linear response parameters
   LEPSILON=     F    determine dielectric tensor
   LRPA    =     F    only Hartree local field effects (RPA)
   LNABLA  =     F    use nabla operator in PAW spheres
   LVEL    =     F    velocity operator in full k-point grid
   LINTERFAST=   F  fast interpolation
   KINTER  =     0    interpolate to denser k-point grid
   CSHIFT  =0.1000    complex shift for real part using Kramers Kronig
   OMEGAMAX=  -1.0    maximum frequency
   DEG_THRESHOLD= 0.2000000E-02 threshold for treating states as degnerate
   RTIME   =    0.100 relaxation time in fs

 Orbital magnetization related:
   ORBITALMAG=     F  switch on orbital magnetization
   LCHIMAG   =     F  perturbation theory with respect to B field
   DQ        =  0.001000  dq finite difference perturbation B field



--------------------------------------------------------------------------------------------------------


 conjugate gradient relaxation of ions
 charge density and potential remain constant during run
 non-spin polarized calculation
 Variant of blocked Davidson
 Davidson routine will perform the subspace rotation
 perform sub-space diagonalisation
    after iterative eigenvector-optimisation
 no mixing
 using additional bands            4
 reciprocal scheme for non local part
 use partial core corrections
 calculate Harris-corrections to forces 
   (improved forces if not selfconsistent)
 use of overlap-Matrix (Vanderbilt PP)
 Gauss-broadening in eV      SIGMA  =   0.01


--------------------------------------------------------------------------------------------------------


  energy-cutoff  :      500.00
  volume of cell :       40.05
      direct lattice vectors                 reciprocal lattice vectors
     2.715500000  2.715500000  0.000000000     0.184128153  0.184128153  0.184128153
     2.715500000  0.000000000 -2.715500000     0.184128153 -0.184128153 -0.184128153
     0.000000000  2.715500000 -2.715500000    -0.184128153  0.184128153 -0.184128153

  length of vectors
     3.840296929  3.840296929  3.840296929     0.318919316  0.318919316  0.318919316


 
 k-points in units of 2pi/SCALE and weight: Automatically generated mesh: SCF=15,201
   0.00000000  0.00000000  0.00000000       0.005
   0.16666667  0.16666667  0.16666667       0.039
   0.33333333  0.33333333  0.33333333       0.039
   0.50000000  0.50000000  0.50000000       0.020
   0.33333333  0.00000000  0.00000000       0.029
   0.50000000  0.16666667  0.16666667       0.118
   0.66666667  0.33333333  0.33333333       0.118
  -0.16666667 -0.50000000 -0.50000000       0.118
   0.00000000 -0.33333333 -0.33333333       0.059
   0.66666667  0.00000000  0.00000000       0.029
   0.83333333  0.16666667  0.16666667       0.118
   0.00000000 -0.66666667 -0.66666667       0.059
   1.00000000  0.00000000  0.00000000       0.015
   0.66666667  0.33333333  0.00000000       0.118
  -0.16666667 -0.50000000 -0.83333333       0.118
   0.00000000  0.96800000  0.00000000       0.000
   0.00248756  0.96551244 -0.00248756       0.000
   0.00497512  0.96302488 -0.00497512       0.000
   0.00746269  0.96053731 -0.00746269       0.000
   0.00995025  0.95804975 -0.00995025       0.000
   0.01243781  0.95556219 -0.01243781       0.000
   0.01492537  0.95307463 -0.01492537       0.000
   0.01741293  0.95058707 -0.01741293       0.000
   0.01990050  0.94809950 -0.01990050       0.000
   0.02238806  0.94561194 -0.02238806       0.000
   0.02487562  0.94312438 -0.02487562       0.000
   0.02736318  0.94063682 -0.02736318       0.000
   0.02985075  0.93814925 -0.02985075       0.000
   0.03233831  0.93566169 -0.03233831       0.000
   0.03482587  0.93317413 -0.03482587       0.000
   0.03731343  0.93068657 -0.03731343       0.000
   0.03980099  0.92819901 -0.03980099       0.000
   0.04228856  0.92571144 -0.04228856       0.000
   0.04477612  0.92322388 -0.04477612       0.000
   0.04726368  0.92073632 -0.04726368       0.000
   0.04975124  0.91824876 -0.04975124       0.000
   0.05223880  0.91576120 -0.05223880       0.000
   0.05472637  0.91327363 -0.05472637       0.000
   0.05721393  0.91078607 -0.05721393       0.000
   0.05970149  0.90829851 -0.05970149       0.000
   0.06218905  0.90581095 -0.06218905       0.000
   0.06467661  0.90332339 -0.06467661       0.000
   0.06716418  0.90083582 -0.06716418       0.000
   0.06965174  0.89834826 -0.06965174       0.000
   0.07213930  0.89586070 -0.07213930       0.000
   0.07462686  0.89337314 -0.07462686       0.000
   0.07711443  0.89088557 -0.07711443       0.000
   0.07960199  0.88839801 -0.07960199       0.000
   0.08208955  0.88591045 -0.08208955       0.000
   0.08457711  0.88342289 -0.08457711       0.000
   0.08706468  0.88093532 -0.08706468       0.000
   0.08955224  0.87844776 -0.08955224       0.000
   0.09203980  0.87596020 -0.09203980       0.000
   0.09452736  0.87347264 -0.09452736       0.000
   0.09701493  0.87098507 -0.09701493       0.000
   0.09950249  0.86849751 -0.09950249       0.000
   0.10199004  0.86600996 -0.10199004       0.000
   0.10447761  0.86352239 -0.10447761       0.000
   0.10696517  0.86103483 -0.10696517       0.000
   0.10945273  0.85854727 -0.10945273       0.000
   0.11194029  0.85605971 -0.11194029       0.000
   0.11442786  0.85357214 -0.11442786       0.000
   0.11691542  0.85108458 -0.11691542       0.000
   0.11940298  0.84859702 -0.11940298       0.000
   0.12189054  0.84610946 -0.12189054       0.000
   0.12437811  0.84362189 -0.12437811       0.000
   0.12686567  0.84113433 -0.12686567       0.000
   0.12935323  0.83864677 -0.12935323       0.000
   0.13184080  0.83615920 -0.13184080       0.000
   0.13432835  0.83367165 -0.13432835       0.000
   0.13681592  0.83118408 -0.13681592       0.000
   0.13930348  0.82869652 -0.13930348       0.000
   0.14179105  0.82620895 -0.14179105       0.000
   0.14427860  0.82372140 -0.14427860       0.000
   0.14676617  0.82123383 -0.14676617       0.000
   0.14925373  0.81874627 -0.14925373       0.000
   0.15174130  0.81625870 -0.15174130       0.000
   0.15422885  0.81377115 -0.15422885       0.000
   0.15671642  0.81128358 -0.15671642       0.000
   0.15920398  0.80879602 -0.15920398       0.000
   0.16169153  0.80630847 -0.16169153       0.000
   0.16417910  0.80382090 -0.16417910       0.000
   0.16666666  0.80133334 -0.16666666       0.000
   0.16915423  0.79884577 -0.16915423       0.000
   0.17164178  0.79635822 -0.17164178       0.000
   0.17412935  0.79387065 -0.17412935       0.000
   0.17661691  0.79138309 -0.17661691       0.000
   0.17910448  0.78889552 -0.17910448       0.000
   0.18159203  0.78640797 -0.18159203       0.000
   0.18407960  0.78392040 -0.18407960       0.000
   0.18656716  0.78143284 -0.18656716       0.000
   0.18905473  0.77894527 -0.18905473       0.000
   0.19154228  0.77645772 -0.19154228       0.000
   0.19402985  0.77397015 -0.19402985       0.000
   0.19651741  0.77148259 -0.19651741       0.000
   0.19900498  0.76899502 -0.19900498       0.000
   0.20149253  0.76650747 -0.20149253       0.000
   0.20398009  0.76401991 -0.20398009       0.000
   0.20646766  0.76153234 -0.20646766       0.000
   0.20895521  0.75904479 -0.20895521       0.000
   0.21144278  0.75655722 -0.21144278       0.000
   0.21393034  0.75406966 -0.21393034       0.000
   0.21641791  0.75158209 -0.21641791       0.000
   0.21890546  0.74909454 -0.21890546       0.000
   0.22139303  0.74660697 -0.22139303       0.000
   0.22388059  0.74411941 -0.22388059       0.000
   0.22636816  0.74163184 -0.22636816       0.000
   0.22885571  0.73914429 -0.22885571       0.000
   0.23134328  0.73665672 -0.23134328       0.000
   0.23383084  0.73416916 -0.23383084       0.000
   0.23631841  0.73168159 -0.23631841       0.000
   0.23880596  0.72919404 -0.23880596       0.000
   0.24129352  0.72670648 -0.24129352       0.000
   0.24378109  0.72421891 -0.24378109       0.000
   0.24626864  0.72173136 -0.24626864       0.000
   0.24875621  0.71924379 -0.24875621       0.000
   0.25124377  0.71675623 -0.25124377       0.000
   0.25373134  0.71426866 -0.25373134       0.000
   0.25621891  0.71178109 -0.25621891       0.000
   0.25870645  0.70929355 -0.25870645       0.000
   0.26119402  0.70680598 -0.26119402       0.000
   0.26368159  0.70431841 -0.26368159       0.000
   0.26616916  0.70183084 -0.26616916       0.000
   0.26865670  0.69934330 -0.26865670       0.000
   0.27114427  0.69685573 -0.27114427       0.000
   0.27363184  0.69436816 -0.27363184       0.000
   0.27611941  0.69188059 -0.27611941       0.000
   0.27860695  0.68939305 -0.27860695       0.000
   0.28109452  0.68690548 -0.28109452       0.000
   0.28358209  0.68441791 -0.28358209       0.000
   0.28606963  0.68193037 -0.28606963       0.000
   0.28855720  0.67944280 -0.28855720       0.000
   0.29104477  0.67695523 -0.29104477       0.000
   0.29353234  0.67446766 -0.29353234       0.000
   0.29601988  0.67198012 -0.29601988       0.000
   0.29850745  0.66949255 -0.29850745       0.000
   0.30099502  0.66700498 -0.30099502       0.000
   0.30348259  0.66451741 -0.30348259       0.000
   0.30597013  0.66202987 -0.30597013       0.000
   0.30845770  0.65954230 -0.30845770       0.000
   0.31094527  0.65705473 -0.31094527       0.000
   0.31343284  0.65456716 -0.31343284       0.000
   0.31592038  0.65207962 -0.31592038       0.000
   0.31840795  0.64959205 -0.31840795       0.000
   0.32089552  0.64710448 -0.32089552       0.000
   0.32338306  0.64461694 -0.32338306       0.000
   0.32587063  0.64212937 -0.32587063       0.000
   0.32835820  0.63964180 -0.32835820       0.000
   0.33084577  0.63715423 -0.33084577       0.000
   0.33333331  0.63466669 -0.33333331       0.000
   0.33582088  0.63217912 -0.33582088       0.000
   0.33830845  0.62969155 -0.33830845       0.000
   0.34079602  0.62720398 -0.34079602       0.000
   0.34328356  0.62471644 -0.34328356       0.000
   0.34577113  0.62222887 -0.34577113       0.000
   0.34825870  0.61974130 -0.34825870       0.000
   0.35074627  0.61725373 -0.35074627       0.000
   0.35323381  0.61476619 -0.35323381       0.000
   0.35572138  0.61227862 -0.35572138       0.000
   0.35820895  0.60979105 -0.35820895       0.000
   0.36069649  0.60730351 -0.36069649       0.000
   0.36318406  0.60481594 -0.36318406       0.000
   0.36567163  0.60232837 -0.36567163       0.000
   0.36815920  0.59984080 -0.36815920       0.000
   0.37064674  0.59735326 -0.37064674       0.000
   0.37313432  0.59486568 -0.37313432       0.000
   0.37562189  0.59237811 -0.37562189       0.000
   0.37810946  0.58989054 -0.37810946       0.000
   0.38059700  0.58740300 -0.38059700       0.000
   0.38308457  0.58491543 -0.38308457       0.000
   0.38557214  0.58242786 -0.38557214       0.000
   0.38805971  0.57994029 -0.38805971       0.000
   0.39054725  0.57745275 -0.39054725       0.000
   0.39303482  0.57496518 -0.39303482       0.000
   0.39552239  0.57247761 -0.39552239       0.000
   0.39800996  0.56999004 -0.39800996       0.000
   0.40049750  0.56750250 -0.40049750       0.000
   0.40298507  0.56501493 -0.40298507       0.000
   0.40547264  0.56252736 -0.40547264       0.000
   0.40796018  0.56003982 -0.40796018       0.000
   0.41044775  0.55755225 -0.41044775       0.000
   0.41293532  0.55506468 -0.41293532       0.000
   0.41542289  0.55257711 -0.41542289       0.000
   0.41791043  0.55008957 -0.41791043       0.000
   0.42039800  0.54760200 -0.42039800       0.000
   0.42288557  0.54511443 -0.42288557       0.000
   0.42537314  0.54262686 -0.42537314       0.000
   0.42786068  0.54013932 -0.42786068       0.000
   0.43034825  0.53765175 -0.43034825       0.000
   0.43283582  0.53516418 -0.43283582       0.000
   0.43532339  0.53267661 -0.43532339       0.000
   0.43781093  0.53018907 -0.43781093       0.000
   0.44029850  0.52770150 -0.44029850       0.000
   0.44278607  0.52521393 -0.44278607       0.000
   0.44527361  0.52272639 -0.44527361       0.000
   0.44776118  0.52023882 -0.44776118       0.000
   0.45024875  0.51775125 -0.45024875       0.000
   0.45273632  0.51526368 -0.45273632       0.000
   0.45522386  0.51277614 -0.45522386       0.000
   0.45771143  0.51028857 -0.45771143       0.000
   0.46019900  0.50780100 -0.46019900       0.000
   0.46268657  0.50531343 -0.46268657       0.000
   0.46517411  0.50282589 -0.46517411       0.000
   0.46766168  0.50033832 -0.46766168       0.000
   0.47014925  0.49785075 -0.47014925       0.000
   0.47263682  0.49536318 -0.47263682       0.000
   0.47512436  0.49287564 -0.47512436       0.000
   0.47761193  0.49038807 -0.47761193       0.000
   0.48009950  0.48790050 -0.48009950       0.000
   0.48258704  0.48541296 -0.48258704       0.000
   0.48507461  0.48292539 -0.48507461       0.000
   0.48756218  0.48043782 -0.48756218       0.000
   0.49004975  0.47795025 -0.49004975       0.000
   0.49253729  0.47546271 -0.49253729       0.000
   0.49502486  0.47297514 -0.49502486       0.000
   0.49751243  0.47048757 -0.49751243       0.000
 
 k-points in reciprocal lattice and weights: Automatically generated mesh: SCF=15,201
   0.00000000  0.00000000  0.00000000       0.005
   0.16666667  0.00000000  0.00000000       0.039
   0.33333333  0.00000000  0.00000000       0.039
   0.50000000  0.00000000  0.00000000       0.020
   0.16666667  0.16666667  0.00000000       0.029
   0.33333333  0.16666667  0.00000000       0.118
   0.50000000  0.16666667  0.00000000       0.118
  -0.33333333  0.16666667  0.00000000       0.118
  -0.16666667  0.16666667  0.00000000       0.059
   0.33333333  0.33333333  0.00000000       0.029
   0.50000000  0.33333333  0.00000000       0.118
  -0.33333333  0.33333333  0.00000000       0.059
   0.50000000  0.50000000  0.00000000       0.015
   0.50000000  0.33333333  0.16666667       0.118
  -0.33333333  0.33333333  0.16666667       0.118
   0.48400000  0.00000000  0.48400000       0.000
   0.48400000  0.00248756  0.48400000       0.000
   0.48400000  0.00497512  0.48400000       0.000
   0.48400000  0.00746269  0.48400000       0.000
   0.48400000  0.00995025  0.48400000       0.000
   0.48400000  0.01243781  0.48400000       0.000
   0.48400000  0.01492537  0.48400000       0.000
   0.48400000  0.01741293  0.48400000       0.000
   0.48400000  0.01990050  0.48400000       0.000
   0.48400000  0.02238806  0.48400000       0.000
   0.48400000  0.02487562  0.48400000       0.000
   0.48400000  0.02736318  0.48400000       0.000
   0.48400000  0.02985075  0.48400000       0.000
   0.48400000  0.03233831  0.48400000       0.000
   0.48400000  0.03482587  0.48400000       0.000
   0.48400000  0.03731343  0.48400000       0.000
   0.48400000  0.03980099  0.48400000       0.000
   0.48400000  0.04228856  0.48400000       0.000
   0.48400000  0.04477612  0.48400000       0.000
   0.48400000  0.04726368  0.48400000       0.000
   0.48400000  0.04975124  0.48400000       0.000
   0.48400000  0.05223880  0.48400000       0.000
   0.48400000  0.05472637  0.48400000       0.000
   0.48400000  0.05721393  0.48400000       0.000
   0.48400000  0.05970149  0.48400000       0.000
   0.48400000  0.06218905  0.48400000       0.000
   0.48400000  0.06467661  0.48400000       0.000
   0.48400000  0.06716418  0.48400000       0.000
   0.48400000  0.06965174  0.48400000       0.000
   0.48400000  0.07213930  0.48400000       0.000
   0.48400000  0.07462686  0.48400000       0.000
   0.48400000  0.07711443  0.48400000       0.000
   0.48400000  0.07960199  0.48400000       0.000
   0.48400000  0.08208955  0.48400000       0.000
   0.48400000  0.08457711  0.48400000       0.000
   0.48400000  0.08706468  0.48400000       0.000
   0.48400000  0.08955224  0.48400000       0.000
   0.48400000  0.09203980  0.48400000       0.000
   0.48400000  0.09452736  0.48400000       0.000
   0.48400000  0.09701493  0.48400000       0.000
   0.48400000  0.09950249  0.48400000       0.000
   0.48400000  0.10199004  0.48400000       0.000
   0.48400000  0.10447761  0.48400000       0.000
   0.48400000  0.10696517  0.48400000       0.000
   0.48400000  0.10945273  0.48400000       0.000
   0.48400000  0.11194029  0.48400000       0.000
   0.48400000  0.11442786  0.48400000       0.000
   0.48400000  0.11691542  0.48400000       0.000
   0.48400000  0.11940298  0.48400000       0.000
   0.48400000  0.12189054  0.48400000       0.000
   0.48400000  0.12437811  0.48400000       0.000
   0.48400000  0.12686567  0.48400000       0.000
   0.48400000  0.12935323  0.48400000       0.000
   0.48400000  0.13184080  0.48400000       0.000
   0.48400000  0.13432835  0.48400000       0.000
   0.48400000  0.13681592  0.48400000       0.000
   0.48400000  0.13930348  0.48400000       0.000
   0.48400000  0.14179105  0.48400000       0.000
   0.48400000  0.14427860  0.48400000       0.000
   0.48400000  0.14676617  0.48400000       0.000
   0.48400000  0.14925373  0.48400000       0.000
   0.48400000  0.15174130  0.48400000       0.000
   0.48400000  0.15422885  0.48400000       0.000
   0.48400000  0.15671642  0.48400000       0.000
   0.48400000  0.15920398  0.48400000       0.000
   0.48400000  0.16169153  0.48400000       0.000
   0.48400000  0.16417910  0.48400000       0.000
   0.48400000  0.16666666  0.48400000       0.000
   0.48400000  0.16915423  0.48400000       0.000
   0.48400000  0.17164178  0.48400000       0.000
   0.48400000  0.17412935  0.48400000       0.000
   0.48400000  0.17661691  0.48400000       0.000
   0.48400000  0.17910448  0.48400000       0.000
   0.48400000  0.18159203  0.48400000       0.000
   0.48400000  0.18407960  0.48400000       0.000
   0.48400000  0.18656716  0.48400000       0.000
   0.48400000  0.18905473  0.48400000       0.000
   0.48400000  0.19154228  0.48400000       0.000
   0.48400000  0.19402985  0.48400000       0.000
   0.48400000  0.19651741  0.48400000       0.000
   0.48400000  0.19900498  0.48400000       0.000
   0.48400000  0.20149253  0.48400000       0.000
   0.48400000  0.20398009  0.48400000       0.000
   0.48400000  0.20646766  0.48400000       0.000
   0.48400000  0.20895521  0.48400000       0.000
   0.48400000  0.21144278  0.48400000       0.000
   0.48400000  0.21393034  0.48400000       0.000
   0.48400000  0.21641791  0.48400000       0.000
   0.48400000  0.21890546  0.48400000       0.000
   0.48400000  0.22139303  0.48400000       0.000
   0.48400000  0.22388059  0.48400000       0.000
   0.48400000  0.22636816  0.48400000       0.000
   0.48400000  0.22885571  0.48400000       0.000
   0.48400000  0.23134328  0.48400000       0.000
   0.48400000  0.23383084  0.48400000       0.000
   0.48400000  0.23631841  0.48400000       0.000
   0.48400000  0.23880596  0.48400000       0.000
   0.48400000  0.24129352  0.48400000       0.000
   0.48400000  0.24378109  0.48400000       0.000
   0.48400000  0.24626864  0.48400000       0.000
   0.48400000  0.24875621  0.48400000       0.000
   0.48400000  0.25124377  0.48400000       0.000
   0.48400000  0.25373134  0.48400000       0.000
   0.48400000  0.25621891  0.48400000       0.000
   0.48400000  0.25870645  0.48400000       0.000
   0.48400000  0.26119402  0.48400000       0.000
   0.48400000  0.26368159  0.48400000       0.000
   0.48400000  0.26616916  0.48400000       0.000
   0.48400000  0.26865670  0.48400000       0.000
   0.48400000  0.27114427  0.48400000       0.000
   0.48400000  0.27363184  0.48400000       0.000
   0.48400000  0.27611941  0.48400000       0.000
   0.48400000  0.27860695  0.48400000       0.000
   0.48400000  0.28109452  0.48400000       0.000
   0.48400000  0.28358209  0.48400000       0.000
   0.48400000  0.28606963  0.48400000       0.000
   0.48400000  0.28855720  0.48400000       0.000
   0.48400000  0.29104477  0.48400000       0.000
   0.48400000  0.29353234  0.48400000       0.000
   0.48400000  0.29601988  0.48400000       0.000
   0.48400000  0.29850745  0.48400000       0.000
   0.48400000  0.30099502  0.48400000       0.000
   0.48400000  0.30348259  0.48400000       0.000
   0.48400000  0.30597013  0.48400000       0.000
   0.48400000  0.30845770  0.48400000       0.000
   0.48400000  0.31094527  0.48400000       0.000
   0.48400000  0.31343284  0.48400000       0.000
   0.48400000  0.31592038  0.48400000       0.000
   0.48400000  0.31840795  0.48400000       0.000
   0.48400000  0.32089552  0.48400000       0.000
   0.48400000  0.32338306  0.48400000       0.000
   0.48400000  0.32587063  0.48400000       0.000
   0.48400000  0.32835820  0.48400000       0.000
   0.48400000  0.33084577  0.48400000       0.000
   0.48400000  0.33333331  0.48400000       0.000
   0.48400000  0.33582088  0.48400000       0.000
   0.48400000  0.33830845  0.48400000       0.000
   0.48400000  0.34079602  0.48400000       0.000
   0.48400000  0.34328356  0.48400000       0.000
   0.48400000  0.34577113  0.48400000       0.000
   0.48400000  0.34825870  0.48400000       0.000
   0.48400000  0.35074627  0.48400000       0.000
   0.48400000  0.35323381  0.48400000       0.000
   0.48400000  0.35572138  0.48400000       0.000
   0.48400000  0.35820895  0.48400000       0.000
   0.48400000  0.36069649  0.48400000       0.000
   0.48400000  0.36318406  0.48400000       0.000
   0.48400000  0.36567163  0.48400000       0.000
   0.48400000  0.36815920  0.48400000       0.000
   0.48400000  0.37064674  0.48400000       0.000
   0.48400000  0.37313432  0.48400000       0.000
   0.48400000  0.37562189  0.48400000       0.000
   0.48400000  0.37810946  0.48400000       0.000
   0.48400000  0.38059700  0.48400000       0.000
   0.48400000  0.38308457  0.48400000       0.000
   0.48400000  0.38557214  0.48400000       0.000
   0.48400000  0.38805971  0.48400000       0.000
   0.48400000  0.39054725  0.48400000       0.000
   0.48400000  0.39303482  0.48400000       0.000
   0.48400000  0.39552239  0.48400000       0.000
   0.48400000  0.39800996  0.48400000       0.000
   0.48400000  0.40049750  0.48400000       0.000
   0.48400000  0.40298507  0.48400000       0.000
   0.48400000  0.40547264  0.48400000       0.000
   0.48400000  0.40796018  0.48400000       0.000
   0.48400000  0.41044775  0.48400000       0.000
   0.48400000  0.41293532  0.48400000       0.000
   0.48400000  0.41542289  0.48400000       0.000
   0.48400000  0.41791043  0.48400000       0.000
   0.48400000  0.42039800  0.48400000       0.000
   0.48400000  0.42288557  0.48400000       0.000
   0.48400000  0.42537314  0.48400000       0.000
   0.48400000  0.42786068  0.48400000       0.000
   0.48400000  0.43034825  0.48400000       0.000
   0.48400000  0.43283582  0.48400000       0.000
   0.48400000  0.43532339  0.48400000       0.000
   0.48400000  0.43781093  0.48400000       0.000
   0.48400000  0.44029850  0.48400000       0.000
   0.48400000  0.44278607  0.48400000       0.000
   0.48400000  0.44527361  0.48400000       0.000
   0.48400000  0.44776118  0.48400000       0.000
   0.48400000  0.45024875  0.48400000       0.000
   0.48400000  0.45273632  0.48400000       0.000
   0.48400000  0.45522386  0.48400000       0.000
   0.48400000  0.45771143  0.48400000       0.000
   0.48400000  0.46019900  0.48400000       0.000
   0.48400000  0.46268657  0.48400000       0.000
   0.48400000  0.46517411  0.48400000       0.000
   0.48400000  0.46766168  0.48400000       0.000
   0.48400000  0.47014925  0.48400000       0.000
   0.48400000  0.47263682  0.48400000       0.000
   0.48400000  0.47512436  0.48400000       0.000
   0.48400000  0.47761193  0.48400000       0.000
   0.48400000  0.48009950  0.48400000       0.000
   0.48400000  0.48258704  0.48400000       0.000
   0.48400000  0.48507461  0.48400000       0.000
   0.48400000  0.48756218  0.48400000       0.000
   0.48400000  0.49004975  0.48400000       0.000
   0.48400000  0.49253729  0.48400000       0.000
   0.48400000  0.49502486  0.48400000       0.000
   0.48400000  0.49751243  0.48400000       0.000
 
 position of ions in fractional coordinates (direct lattice) 
   0.00000000  0.00000000  0.00000000
   0.25000000  0.25000000  0.25000000
 
 position of ions in cartesian coordinates  (Angst):
   0.00000000  0.00000000  0.00000000
   1.35775000  1.35775000 -1.35775000
 


--------------------------------------------------------------------------------------------------------


 k-point  1 :   0.0000 0.0000 0.0000  plane waves:     965
 k-point  2 :   0.1667 0.0000 0.0000  plane waves:     989
 k-point  3 :   0.3333 0.0000 0.0000  plane waves:    1008
 k-point  4 :   0.5000 0.0000 0.0000  plane waves:    1008
 k-point  5 :   0.1667 0.1667 0.0000  plane waves:     998
 k-point  6 :   0.3333 0.1667 0.0000  plane waves:    1011
 k-point  7 :   0.5000 0.1667 0.0000  plane waves:    1017
 k-point  8 :  -0.3333 0.1667 0.0000  plane waves:    1019
 k-point  9 :  -0.1667 0.1667 0.0000  plane waves:    1013
 k-point 10 :   0.3333 0.3333 0.0000  plane waves:    1018
 k-point 11 :   0.5000 0.3333 0.0000  plane waves:    1012
 k-point 12 :  -0.3333 0.3333 0.0000  plane waves:    1015
 k-point 13 :   0.5000 0.5000 0.0000  plane waves:    1034
 k-point 14 :   0.5000 0.3333 0.1667  plane waves:    1032
 k-point 15 :  -0.3333 0.3333 0.1667  plane waves:    1020
 k-point 16 :   0.4840 0.0000 0.4840  plane waves:    1018
 k-point 17 :   0.4840 0.0025 0.4840  plane waves:    1017
 k-point 18 :   0.4840 0.0050 0.4840  plane waves:    1017
 k-point 19 :   0.4840 0.0075 0.4840  plane waves:    1017
 k-point 20 :   0.4840 0.0100 0.4840  plane waves:    1017
 k-point 21 :   0.4840 0.0124 0.4840  plane waves:    1017
 k-point 22 :   0.4840 0.0149 0.4840  plane waves:    1017
 k-point 23 :   0.4840 0.0174 0.4840  plane waves:    1017
 k-point 24 :   0.4840 0.0199 0.4840  plane waves:    1017
 k-point 25 :   0.4840 0.0224 0.4840  plane waves:    1016
 k-point 26 :   0.4840 0.0249 0.4840  plane waves:    1016
 k-point 27 :   0.4840 0.0274 0.4840  plane waves:    1016
 k-point 28 :   0.4840 0.0299 0.4840  plane waves:    1016
 k-point 29 :   0.4840 0.0323 0.4840  plane waves:    1016
 k-point 30 :   0.4840 0.0348 0.4840  plane waves:    1016
 k-point 31 :   0.4840 0.0373 0.4840  plane waves:    1014
 k-point 32 :   0.4840 0.0398 0.4840  plane waves:    1014
 k-point 33 :   0.4840 0.0423 0.4840  plane waves:    1014
 k-point 34 :   0.4840 0.0448 0.4840  plane waves:    1014
 k-point 35 :   0.4840 0.0473 0.4840  plane waves:    1012
 k-point 36 :   0.4840 0.0498 0.4840  plane waves:    1012
 k-point 37 :   0.4840 0.0522 0.4840  plane waves:    1012
 k-point 38 :   0.4840 0.0547 0.4840  plane waves:    1012
 k-point 39 :   0.4840 0.0572 0.4840  plane waves:    1012
 k-point 40 :   0.4840 0.0597 0.4840  plane waves:    1012
 k-point 41 :   0.4840 0.0622 0.4840  plane waves:    1012
 k-point 42 :   0.4840 0.0647 0.4840  plane waves:    1012
 k-point 43 :   0.4840 0.0672 0.4840  plane waves:    1012
 k-point 44 :   0.4840 0.0697 0.4840  plane waves:    1012
 k-point 45 :   0.4840 0.0721 0.4840  plane waves:    1010
 k-point 46 :   0.4840 0.0746 0.4840  plane waves:    1012
 k-point 47 :   0.4840 0.0771 0.4840  plane waves:    1012
 k-point 48 :   0.4840 0.0796 0.4840  plane waves:    1012
 k-point 49 :   0.4840 0.0821 0.4840  plane waves:    1014
 k-point 50 :   0.4840 0.0846 0.4840  plane waves:    1014
 k-point 51 :   0.4840 0.0871 0.4840  plane waves:    1014
 k-point 52 :   0.4840 0.0896 0.4840  plane waves:    1014
 k-point 53 :   0.4840 0.0920 0.4840  plane waves:    1014
 k-point 54 :   0.4840 0.0945 0.4840  plane waves:    1014
 k-point 55 :   0.4840 0.0970 0.4840  plane waves:    1013
 k-point 56 :   0.4840 0.0995 0.4840  plane waves:    1015
 k-point 57 :   0.4840 0.1020 0.4840  plane waves:    1015
 k-point 58 :   0.4840 0.1045 0.4840  plane waves:    1015
 k-point 59 :   0.4840 0.1070 0.4840  plane waves:    1015
 k-point 60 :   0.4840 0.1095 0.4840  plane waves:    1015
 k-point 61 :   0.4840 0.1119 0.4840  plane waves:    1017
 k-point 62 :   0.4840 0.1144 0.4840  plane waves:    1015
 k-point 63 :   0.4840 0.1169 0.4840  plane waves:    1013
 k-point 64 :   0.4840 0.1194 0.4840  plane waves:    1015
 k-point 65 :   0.4840 0.1219 0.4840  plane waves:    1016
 k-point 66 :   0.4840 0.1244 0.4840  plane waves:    1016
 k-point 67 :   0.4840 0.1269 0.4840  plane waves:    1016
 k-point 68 :   0.4840 0.1294 0.4840  plane waves:    1016
 k-point 69 :   0.4840 0.1318 0.4840  plane waves:    1016
 k-point 70 :   0.4840 0.1343 0.4840  plane waves:    1018
 k-point 71 :   0.4840 0.1368 0.4840  plane waves:    1018
 k-point 72 :   0.4840 0.1393 0.4840  plane waves:    1016
 k-point 73 :   0.4840 0.1418 0.4840  plane waves:    1017
 k-point 74 :   0.4840 0.1443 0.4840  plane waves:    1019
 k-point 75 :   0.4840 0.1468 0.4840  plane waves:    1019
 k-point 76 :   0.4840 0.1493 0.4840  plane waves:    1019
 k-point 77 :   0.4840 0.1517 0.4840  plane waves:    1019
 k-point 78 :   0.4840 0.1542 0.4840  plane waves:    1019
 k-point 79 :   0.4840 0.1567 0.4840  plane waves:    1017
 k-point 80 :   0.4840 0.1592 0.4840  plane waves:    1017
 k-point 81 :   0.4840 0.1617 0.4840  plane waves:    1017
 k-point 82 :   0.4840 0.1642 0.4840  plane waves:    1017
 k-point 83 :   0.4840 0.1667 0.4840  plane waves:    1017
 k-point 84 :   0.4840 0.1692 0.4840  plane waves:    1017
 k-point 85 :   0.4840 0.1716 0.4840  plane waves:    1019
 k-point 86 :   0.4840 0.1741 0.4840  plane waves:    1021
 k-point 87 :   0.4840 0.1766 0.4840  plane waves:    1022
 k-point 88 :   0.4840 0.1791 0.4840  plane waves:    1022
 k-point 89 :   0.4840 0.1816 0.4840  plane waves:    1022
 k-point 90 :   0.4840 0.1841 0.4840  plane waves:    1022
 k-point 91 :   0.4840 0.1866 0.4840  plane waves:    1022
 k-point 92 :   0.4840 0.1891 0.4840  plane waves:    1022
 k-point 93 :   0.4840 0.1915 0.4840  plane waves:    1022
 k-point 94 :   0.4840 0.1940 0.4840  plane waves:    1022
 k-point 95 :   0.4840 0.1965 0.4840  plane waves:    1022
 k-point 96 :   0.4840 0.1990 0.4840  plane waves:    1024
 k-point 97 :   0.4840 0.2015 0.4840  plane waves:    1024
 k-point 98 :   0.4840 0.2040 0.4840  plane waves:    1022
 k-point 99 :   0.4840 0.2065 0.4840  plane waves:    1022
 k-point ** :   0.4840 0.2090 0.4840  plane waves:    1020
 k-point ** :   0.4840 0.2114 0.4840  plane waves:    1020
 k-point ** :   0.4840 0.2139 0.4840  plane waves:    1020
 k-point ** :   0.4840 0.2164 0.4840  plane waves:    1020
 k-point ** :   0.4840 0.2189 0.4840  plane waves:    1021
 k-point ** :   0.4840 0.2214 0.4840  plane waves:    1021
 k-point ** :   0.4840 0.2239 0.4840  plane waves:    1021
 k-point ** :   0.4840 0.2264 0.4840  plane waves:    1021
 k-point ** :   0.4840 0.2289 0.4840  plane waves:    1021
 k-point ** :   0.4840 0.2313 0.4840  plane waves:    1021
 k-point ** :   0.4840 0.2338 0.4840  plane waves:    1019
 k-point ** :   0.4840 0.2363 0.4840  plane waves:    1019
 k-point ** :   0.4840 0.2388 0.4840  plane waves:    1017
 k-point ** :   0.4840 0.2413 0.4840  plane waves:    1017
 k-point ** :   0.4840 0.2438 0.4840  plane waves:    1017
 k-point ** :   0.4840 0.2463 0.4840  plane waves:    1017
 k-point ** :   0.4840 0.2488 0.4840  plane waves:    1019
 k-point ** :   0.4840 0.2512 0.4840  plane waves:    1019
 k-point ** :   0.4840 0.2537 0.4840  plane waves:    1019
 k-point ** :   0.4840 0.2562 0.4840  plane waves:    1019
 k-point ** :   0.4840 0.2587 0.4840  plane waves:    1019
 k-point ** :   0.4840 0.2612 0.4840  plane waves:    1019
 k-point ** :   0.4840 0.2637 0.4840  plane waves:    1017
 k-point ** :   0.4840 0.2662 0.4840  plane waves:    1017
 k-point ** :   0.4840 0.2687 0.4840  plane waves:    1017
 k-point ** :   0.4840 0.2711 0.4840  plane waves:    1017
 k-point ** :   0.4840 0.2736 0.4840  plane waves:    1017
 k-point ** :   0.4840 0.2761 0.4840  plane waves:    1021
 k-point ** :   0.4840 0.2786 0.4840  plane waves:    1019
 k-point ** :   0.4840 0.2811 0.4840  plane waves:    1019
 k-point ** :   0.4840 0.2836 0.4840  plane waves:    1019
 k-point ** :   0.4840 0.2861 0.4840  plane waves:    1019
 k-point ** :   0.4840 0.2886 0.4840  plane waves:    1017
 k-point ** :   0.4840 0.2910 0.4840  plane waves:    1017
 k-point ** :   0.4840 0.2935 0.4840  plane waves:    1017
 k-point ** :   0.4840 0.2960 0.4840  plane waves:    1019
 k-point ** :   0.4840 0.2985 0.4840  plane waves:    1019
 k-point ** :   0.4840 0.3010 0.4840  plane waves:    1019
 k-point ** :   0.4840 0.3035 0.4840  plane waves:    1017
 k-point ** :   0.4840 0.3060 0.4840  plane waves:    1017
 k-point ** :   0.4840 0.3085 0.4840  plane waves:    1017
 k-point ** :   0.4840 0.3109 0.4840  plane waves:    1017
 k-point ** :   0.4840 0.3134 0.4840  plane waves:    1017
 k-point ** :   0.4840 0.3159 0.4840  plane waves:    1016
 k-point ** :   0.4840 0.3184 0.4840  plane waves:    1016
 k-point ** :   0.4840 0.3209 0.4840  plane waves:    1016
 k-point ** :   0.4840 0.3234 0.4840  plane waves:    1012
 k-point ** :   0.4840 0.3259 0.4840  plane waves:    1012
 k-point ** :   0.4840 0.3284 0.4840  plane waves:    1014
 k-point ** :   0.4840 0.3308 0.4840  plane waves:    1014
 k-point ** :   0.4840 0.3333 0.4840  plane waves:    1016
 k-point ** :   0.4840 0.3358 0.4840  plane waves:    1018
 k-point ** :   0.4840 0.3383 0.4840  plane waves:    1018
 k-point ** :   0.4840 0.3408 0.4840  plane waves:    1018
 k-point ** :   0.4840 0.3433 0.4840  plane waves:    1018
 k-point ** :   0.4840 0.3458 0.4840  plane waves:    1018
 k-point ** :   0.4840 0.3483 0.4840  plane waves:    1018
 k-point ** :   0.4840 0.3507 0.4840  plane waves:    1018
 k-point ** :   0.4840 0.3532 0.4840  plane waves:    1017
 k-point ** :   0.4840 0.3557 0.4840  plane waves:    1017
 k-point ** :   0.4840 0.3582 0.4840  plane waves:    1017
 k-point ** :   0.4840 0.3607 0.4840  plane waves:    1017
 k-point ** :   0.4840 0.3632 0.4840  plane waves:    1017
 k-point ** :   0.4840 0.3657 0.4840  plane waves:    1017
 k-point ** :   0.4840 0.3682 0.4840  plane waves:    1017
 k-point ** :   0.4840 0.3706 0.4840  plane waves:    1017
 k-point ** :   0.4840 0.3731 0.4840  plane waves:    1015
 k-point ** :   0.4840 0.3756 0.4840  plane waves:    1015
 k-point ** :   0.4840 0.3781 0.4840  plane waves:    1015
 k-point ** :   0.4840 0.3806 0.4840  plane waves:    1015
 k-point ** :   0.4840 0.3831 0.4840  plane waves:    1015
 k-point ** :   0.4840 0.3856 0.4840  plane waves:    1017
 k-point ** :   0.4840 0.3881 0.4840  plane waves:    1017
 k-point ** :   0.4840 0.3905 0.4840  plane waves:    1017
 k-point ** :   0.4840 0.3930 0.4840  plane waves:    1017
 k-point ** :   0.4840 0.3955 0.4840  plane waves:    1017
 k-point ** :   0.4840 0.3980 0.4840  plane waves:    1019
 k-point ** :   0.4840 0.4005 0.4840  plane waves:    1017
 k-point ** :   0.4840 0.4030 0.4840  plane waves:    1017
 k-point ** :   0.4840 0.4055 0.4840  plane waves:    1017
 k-point ** :   0.4840 0.4080 0.4840  plane waves:    1017
 k-point ** :   0.4840 0.4104 0.4840  plane waves:    1017
 k-point ** :   0.4840 0.4129 0.4840  plane waves:    1021
 k-point ** :   0.4840 0.4154 0.4840  plane waves:    1021
 k-point ** :   0.4840 0.4179 0.4840  plane waves:    1021
 k-point ** :   0.4840 0.4204 0.4840  plane waves:    1021
 k-point ** :   0.4840 0.4229 0.4840  plane waves:    1019
 k-point ** :   0.4840 0.4254 0.4840  plane waves:    1021
 k-point ** :   0.4840 0.4279 0.4840  plane waves:    1021
 k-point ** :   0.4840 0.4303 0.4840  plane waves:    1021
 k-point ** :   0.4840 0.4328 0.4840  plane waves:    1021
 k-point ** :   0.4840 0.4353 0.4840  plane waves:    1021
 k-point ** :   0.4840 0.4378 0.4840  plane waves:    1021
 k-point ** :   0.4840 0.4403 0.4840  plane waves:    1021
 k-point ** :   0.4840 0.4428 0.4840  plane waves:    1022
 k-point ** :   0.4840 0.4453 0.4840  plane waves:    1020
 k-point ** :   0.4840 0.4478 0.4840  plane waves:    1021
 k-point ** :   0.4840 0.4502 0.4840  plane waves:    1021
 k-point ** :   0.4840 0.4527 0.4840  plane waves:    1021
 k-point ** :   0.4840 0.4552 0.4840  plane waves:    1022
 k-point ** :   0.4840 0.4577 0.4840  plane waves:    1022
 k-point ** :   0.4840 0.4602 0.4840  plane waves:    1018
 k-point ** :   0.4840 0.4627 0.4840  plane waves:    1018
 k-point ** :   0.4840 0.4652 0.4840  plane waves:    1018
 k-point ** :   0.4840 0.4677 0.4840  plane waves:    1018
 k-point ** :   0.4840 0.4701 0.4840  plane waves:    1012
 k-point ** :   0.4840 0.4726 0.4840  plane waves:    1012
 k-point ** :   0.4840 0.4751 0.4840  plane waves:    1008
 k-point ** :   0.4840 0.4776 0.4840  plane waves:    1008
 k-point ** :   0.4840 0.4801 0.4840  plane waves:    1008
 k-point ** :   0.4840 0.4826 0.4840  plane waves:    1008
 k-point ** :   0.4840 0.4851 0.4840  plane waves:    1008
 k-point ** :   0.4840 0.4876 0.4840  plane waves:    1008
 k-point ** :   0.4840 0.4900 0.4840  plane waves:    1008
 k-point ** :   0.4840 0.4925 0.4840  plane waves:    1008
 k-point ** :   0.4840 0.4950 0.4840  plane waves:    1008
 k-point ** :   0.4840 0.4975 0.4840  plane waves:    1008

 maximum and minimum number of plane-waves per node :       181      155

 maximum number of plane-waves:      1034
 maximum index in each direction: 
   IXMAX=    7   IYMAX=    7   IZMAX=    7
   IXMIN=   -7   IYMIN=   -7   IZMIN=   -7

 WARNING: aliasing errors must be expected set NGX to  30 to avoid them
 WARNING: aliasing errors must be expected set NGY to  30 to avoid them
 WARNING: aliasing errors must be expected set NGZ to  30 to avoid them
 aliasing errors are usually negligible using standard VASP settings
 and one can safely disregard these warnings

 parallel 3D FFT for wavefunctions:
    minimum data exchange during FFTs selected (reduces bandwidth)
 parallel 3D FFT for charge:
    minimum data exchange during FFTs selected (reduces bandwidth)


 total amount of memory used by VASP on root node    34845. kBytes
========================================================================

   base      :      30000. kBytes
   nonl-proj :       2494. kBytes
   fftplans  :        428. kBytes
   grid      :        621. kBytes
   one-center:          3. kBytes
   wavefun   :       1299. kBytes
 
     INWAV:  cpu time    0.0000: real time    0.0000
 initial charge density was supplied:
 number of electron       8.0000001 magnetization 
 keeping initial charge density in first step


--------------------------------------------------------------------------------------------------------


 Maximum index for augmentation-charges         1360 (set IRDMAX)


--------------------------------------------------------------------------------------------------------


 First call to EWALD:  gamma=   0.518
 Maximum number of real-space cells 3x 3x 3
 Maximum number of reciprocal cells 3x 3x 3

 FEWALD executed in parallel
    FEWALD:  cpu time    0.0000: real time    0.0026


----------------------------------------- Iteration    1(   1)  ---------------------------------------


    POTLOK:  cpu time    0.0000: real time    0.0014
    SETDIJ:  cpu time    0.0040: real time    0.0010
     EDDAV:  cpu time    0.0920: real time    0.0968
       DOS:  cpu time    0.0000: real time    0.0010
    --------------------------------------------
      LOOP:  cpu time    0.1080: real time    0.1215

 eigenvalue-minimisations  :  3456
 total energy-change (2. order) : 0.6483734E+01  (-0.3160422E+03)
 number of electron       8.0000001 magnetization 
 augmentation part        8.0000001 magnetization 

 Free energy of the ion-electron system (eV)
  ---------------------------------------------------
  alpha Z        PSCENC =         2.36771343
  Ewald energy   TEWEN  =      -228.52143995
  -Hartree energ DENC   =       -14.91421964
  -exchange      EXHF   =         0.00000000
  -V(xc)+E(xc)   XCENC  =       -17.96442577
  PAW double counting   =        75.27329546      -40.66766249
  entropy T*S    EENTRO =        -0.00017624
  eigenvalues    EBANDS =        24.04431576
  atomic energy  EATOM  =       206.86633348
  Solvation  Ediel_sol  =         0.00000000
  ---------------------------------------------------
  free energy    TOTEN  =         6.48373405 eV

  energy without entropy =        6.48391028  energy(sigma->0) =        6.48382216


--------------------------------------------------------------------------------------------------------




----------------------------------------- Iteration    1(   2)  ---------------------------------------


     EDDAV:  cpu time    0.1360: real time    0.1368
       DOS:  cpu time    0.0040: real time    0.0005
    --------------------------------------------
      LOOP:  cpu time    0.1400: real time    0.1445

 eigenvalue-minimisations  :  5192
 total energy-change (2. order) :-0.1785059E+02  (-0.1770421E+02)
 number of electron       8.0000001 magnetization 
 augmentation part        8.0000001 magnetization 

 Free energy of the ion-electron system (eV)
  ---------------------------------------------------
  alpha Z        PSCENC =         2.36771343
  Ewald energy   TEWEN  =      -228.52143995
  -Hartree energ DENC   =       -14.91421964
  -exchange      EXHF   =         0.00000000
  -V(xc)+E(xc)   XCENC  =       -17.96442577
  PAW double counting   =        75.27329546      -40.66766249
  entropy T*S    EENTRO =        -0.00000000
  eigenvalues    EBANDS =         6.19355165
  atomic energy  EATOM  =       206.86633348
  Solvation  Ediel_sol  =         0.00000000
  ---------------------------------------------------
  free energy    TOTEN  =       -11.36685384 eV

  energy without entropy =      -11.36685384  energy(sigma->0) =      -11.36685384


--------------------------------------------------------------------------------------------------------




----------------------------------------- Iteration    1(   3)  ---------------------------------------


     EDDAV:  cpu time    0.1280: real time    0.1265
       DOS:  cpu time    0.0040: real time    0.0004
    --------------------------------------------
      LOOP:  cpu time    0.1320: real time    0.1330

 eigenvalue-minimisations  :  4704
 total energy-change (2. order) :-0.2360045E+00  (-0.2360045E+00)
 number of electron       8.0000001 magnetization 
 augmentation part        8.0000001 magnetization 

 Free energy of the ion-electron system (eV)
  ---------------------------------------------------
  alpha Z        PSCENC =         2.36771343
  Ewald energy   TEWEN  =      -228.52143995
  -Hartree energ DENC   =       -14.91421964
  -exchange      EXHF   =         0.00000000
  -V(xc)+E(xc)   XCENC  =       -17.96442577
  PAW double counting   =        75.27329546      -40.66766249
  entropy T*S    EENTRO =        -0.00000000
  eigenvalues    EBANDS =         5.95754717
  atomic energy  EATOM  =       206.86633348
  Solvation  Ediel_sol  =         0.00000000
  ---------------------------------------------------
  free energy    TOTEN  =       -11.60285831 eV

  energy without entropy =      -11.60285831  energy(sigma->0) =      -11.60285831


--------------------------------------------------------------------------------------------------------




----------------------------------------- Iteration    1(   4)  ---------------------------------------


     EDDAV:  cpu time    0.1440: real time    0.1421
       DOS:  cpu time    0.0000: real time    0.0005
    --------------------------------------------
      LOOP:  cpu time    0.1440: real time    0.1499

 eigenvalue-minimisations  :  5224
 total energy-change (2. order) :-0.1217660E-02  (-0.1217660E-02)
 number of electron       8.0000001 magnetization 
 augmentation part        8.0000001 magnetization 

 Free energy of the ion-electron system (eV)
  ---------------------------------------------------
  alpha Z        PSCENC =         2.36771343
  Ewald energy   TEWEN  =      -228.52143995
  -Hartree energ DENC   =       -14.91421964
  -exchange      EXHF   =         0.00000000
  -V(xc)+E(xc)   XCENC  =       -17.96442577
  PAW double counting   =        75.27329546      -40.66766249
  entropy T*S    EENTRO =        -0.00000000
  eigenvalues    EBANDS =         5.95632951
  atomic energy  EATOM  =       206.86633348
  Solvation  Ediel_sol  =         0.00000000
  ---------------------------------------------------
  free energy    TOTEN  =       -11.60407597 eV

  energy without entropy =      -11.60407597  energy(sigma->0) =      -11.60407597


--------------------------------------------------------------------------------------------------------




----------------------------------------- Iteration    1(   5)  ---------------------------------------


     EDDAV:  cpu time    0.1240: real time    0.1249
       DOS:  cpu time    0.0000: real time    0.0004
    --------------------------------------------
      LOOP:  cpu time    0.1240: real time    0.1317

 eigenvalue-minimisations  :  4696
 total energy-change (2. order) :-0.1020335E-05  (-0.1020335E-05)
 number of electron       8.0000001 magnetization 
 augmentation part        8.0000001 magnetization 

 Free energy of the ion-electron system (eV)
  ---------------------------------------------------
  alpha Z        PSCENC =         2.36771343
  Ewald energy   TEWEN  =      -228.52143995
  -Hartree energ DENC   =       -14.91421964
  -exchange      EXHF   =         0.00000000
  -V(xc)+E(xc)   XCENC  =       -17.96442577
  PAW double counting   =        75.27329546      -40.66766249
  entropy T*S    EENTRO =        -0.00000000
  eigenvalues    EBANDS =         5.95632849
  atomic energy  EATOM  =       206.86633348
  Solvation  Ediel_sol  =         0.00000000
  ---------------------------------------------------
  free energy    TOTEN  =       -11.60407699 eV

  energy without entropy =      -11.60407699  energy(sigma->0) =      -11.60407699


--------------------------------------------------------------------------------------------------------




----------------------------------------- Iteration    1(   6)  ---------------------------------------


     EDDAV:  cpu time    0.1440: real time    0.1432
       DOS:  cpu time    0.0000: real time    0.0005
    --------------------------------------------
      LOOP:  cpu time    0.1600: real time    0.1671

 eigenvalue-minimisations  :  5160
 total energy-change (2. order) :-0.8208644E-08  (-0.8208628E-08)
 number of electron       8.0000001 magnetization 
 augmentation part        8.0000001 magnetization 

 Free energy of the ion-electron system (eV)
  ---------------------------------------------------
  alpha Z        PSCENC =         2.36771343
  Ewald energy   TEWEN  =      -228.52143995
  -Hartree energ DENC   =       -14.91421964
  -exchange      EXHF   =         0.00000000
  -V(xc)+E(xc)   XCENC  =       -17.96442577
  PAW double counting   =        75.27329546      -40.66766249
  entropy T*S    EENTRO =        -0.00000000
  eigenvalues    EBANDS =         5.95632848
  atomic energy  EATOM  =       206.86633348
  Solvation  Ediel_sol  =         0.00000000
  ---------------------------------------------------
  free energy    TOTEN  =       -11.60407700 eV

  energy without entropy =      -11.60407700  energy(sigma->0) =      -11.60407700


--------------------------------------------------------------------------------------------------------




 the core state eigenenergies are
   1-  1s  -1763.7158  2s   -126.8064  2p    -83.6532
   2-  1s  -1763.7158  2s   -126.8064  2p    -83.6532
 
 E-fermi :   5.8506     XC(G=0):  -9.6022     alpha+bet :-12.0860


 k-point     1 :       0.0000    0.0000    0.0000
  band No.  band energies     occupation 
      1      -6.1818      2.00000
      2       5.7767      2.00000
      3       5.7767      2.00000
      4       5.7767      2.00000
      5       8.2967      0.00000
      6       8.2967      0.00000
      7       8.2967      0.00000
      8       8.9835      0.00000

 k-point     2 :       0.1667    0.0000    0.0000
  band No.  band energies     occupation 
      1      -5.8204      2.00000
      2       3.3798      2.00000
      3       5.3255      2.00000
      4       5.3255      2.00000
      5       8.0345      0.00000
      6       8.9432      0.00000
      7       8.9432      0.00000
      8      11.0927      0.00000

 k-point     3 :       0.3333    0.0000    0.0000
  band No.  band energies     occupation 
      1      -4.8033      2.00000
      2       0.4247      2.00000
      3       4.7777      2.00000
      4       4.7777      2.00000
      5       7.4304      0.00000
      6       9.2334      0.00000
      7       9.2334      0.00000
      8      13.4500      0.00000

 k-point     4 :       0.5000    0.0000    0.0000
  band No.  band energies     occupation 
      1      -3.8429      2.00000
      2      -1.2158      2.00000
      3       4.5809      2.00000
      4       4.5809      2.00000
      5       7.2023      0.00000
      6       9.0638      0.00000
      7       9.0638      0.00000
      8      13.2838      0.00000

 k-point     5 :       0.1667    0.1667    0.0000
  band No.  band energies     occupation 
      1      -5.6975      2.00000
      2       3.7244      2.00000
      3       4.5797      2.00000
      4       4.5797      2.00000
      5       7.4036      0.00000
      6       9.9657      0.00000
      7      10.0740      0.00000
      8      10.0740      0.00000

 k-point     6 :       0.3333    0.1667    0.0000
  band No.  band energies     occupation 
      1      -4.8816      2.00000
      2       1.3289      2.00000
      3       3.7679      2.00000
      4       4.0279      2.00000
      5       7.6572      0.00000
      6       9.7507      0.00000
      7      10.2220      0.00000
      8      10.7990      0.00000

 k-point     7 :       0.5000    0.1667    0.0000
  band No.  band energies     occupation 
      1      -3.6858      2.00000
      2      -0.8447      2.00000
      3       2.9802      2.00000
      4       3.9998      2.00000
      5       7.7253      0.00000
      6       9.8046      0.00000
      7      10.3454      0.00000
      8      12.1017      0.00000

 k-point     8 :      -0.3333    0.1667    0.0000
  band No.  band energies     occupation 
      1      -4.0728      2.00000
      2      -0.2433      2.00000
      3       2.7077      2.00000
      4       4.4806      2.00000
      5       8.1396      0.00000
      6       9.8072      0.00000
      7       9.9536      0.00000
      8      12.9625      0.00000

 k-point     9 :      -0.1667    0.1667    0.0000
  band No.  band energies     occupation 
      1      -5.2318      2.00000
      2       2.0484      2.00000
      3       3.3431      2.00000
      4       5.2141      2.00000
      5       8.7407      0.00000
      6       9.2872      0.00000
      7       9.5408      0.00000
      8      11.3236      0.00000

 k-point    10 :       0.3333    0.3333    0.0000
  band No.  band energies     occupation 
      1      -4.2772      2.00000
      2       0.7622      2.00000
      3       3.3560      2.00000
      4       3.3560      2.00000
      5       6.4018      0.00000
      6       7.6592      0.00000
      7      12.9657      0.00000
      8      12.9657      0.00000

 k-point    11 :       0.5000    0.3333    0.0000
  band No.  band energies     occupation 
      1      -3.1120      2.00000
      2      -0.7881      2.00000
      3       2.1195      2.00000
      4       3.2204      2.00000
      5       6.7337      0.00000
      6       8.4000      0.00000
      7      13.1547      0.00000
      8      13.1596      0.00000

 k-point    12 :      -0.3333    0.3333    0.0000
  band No.  band energies     occupation 
      1      -2.9123      2.00000
      2      -0.9953      2.00000
      3       1.3288      2.00000
      4       3.6637      2.00000
      5       7.2412      0.00000
      6      11.4810      0.00000
      7      12.1880      0.00000
      8      12.7530      0.00000

 k-point    13 :       0.5000    0.5000    0.0000
  band No.  band energies     occupation 
      1      -2.0380      2.00000
      2      -2.0380      2.00000
      3       2.9220      2.00000
      4       2.9220      2.00000
      5       6.3752      0.00000
      6       6.3752      0.00000
      7      15.7513      0.00000
      8      15.7518      0.00000

 k-point    14 :       0.5000    0.3333    0.1667
  band No.  band energies     occupation 
      1      -3.8905      2.00000
      2       0.1303      2.00000
      3       2.1807      2.00000
      4       3.4693      2.00000
      5       8.5487      0.00000
      6       9.3933      0.00000
      7       9.9339      0.00000
      8      12.7653      0.00000

 k-point    15 :      -0.3333    0.3333    0.1667
  band No.  band energies     occupation 
      1      -2.9019      2.00000
      2      -1.0710      2.00000
      3       1.7379      2.00000
      4       2.9981      2.00000
      5       9.0417      0.00000
      6       9.2515      0.00000
      7      11.7840      0.00000
      8      12.2060      0.00000

 k-point    16 :       0.4840    0.0000    0.4840
  band No.  band energies     occupation 
      1      -2.2827      2.00000
      2      -1.7880      2.00000
      3       2.9261      2.00000
      4       2.9261      2.00000
      5       6.3247      0.00000
      6       6.4380      0.00000
      7      15.6524      0.00000
      8      15.6526      0.00000

 k-point    17 :       0.4840    0.0025    0.4840
  band No.  band energies     occupation 
      1      -2.3015      2.00000
      2      -1.7683      2.00000
      3       2.9263      2.00000
      4       2.9268      2.00000
      5       6.3216      0.00000
      6       6.4437      0.00000
      7      15.6375      0.00000
      8      15.6387      0.00000

 k-point    18 :       0.4840    0.0050    0.4840
  band No.  band energies     occupation 
      1      -2.3202      2.00000
      2      -1.7486      2.00000
      3       2.9259      2.00000
      4       2.9276      2.00000
      5       6.3192      0.00000
      6       6.4501      0.00000
      7      15.6207      0.00000
      8      15.6230      0.00000

 k-point    19 :       0.4840    0.0075    0.4840
  band No.  band energies     occupation 
      1      -2.3388      2.00000
      2      -1.7288      2.00000
      3       2.9247      2.00000
      4       2.9286      2.00000
      5       6.3175      0.00000
      6       6.4571      0.00000
      7      15.6024      0.00000
      8      15.6041      0.00000

 k-point    20 :       0.4840    0.0100    0.4840
  band No.  band energies     occupation 
      1      -2.3573      2.00000
      2      -1.7090      2.00000
      3       2.9228      2.00000
      4       2.9297      2.00000
      5       6.3164      0.00000
      6       6.4649      0.00000
      7      15.5828      0.00000
      8      15.5860      0.00000

 k-point    21 :       0.4840    0.0124    0.4840
  band No.  band energies     occupation 
      1      -2.3758      2.00000
      2      -1.6891      2.00000
      3       2.9201      2.00000
      4       2.9309      2.00000
      5       6.3160      0.00000
      6       6.4735      0.00000
      7      15.5599      0.00000
      8      15.5646      0.00000

 k-point    22 :       0.4840    0.0149    0.4840
  band No.  band energies     occupation 
      1      -2.3941      2.00000
      2      -1.6692      2.00000
      3       2.9168      2.00000
      4       2.9323      2.00000
      5       6.3161      0.00000
      6       6.4828      0.00000
      7      15.5364      0.00000
      8      15.5429      0.00000

 k-point    23 :       0.4840    0.0174    0.4840
  band No.  band energies     occupation 
      1      -2.4124      2.00000
      2      -1.6493      2.00000
      3       2.9128      2.00000
      4       2.9338      2.00000
      5       6.3169      0.00000
      6       6.4929      0.00000
      7      15.5114      0.00000
      8      15.5198      0.00000

 k-point    24 :       0.4840    0.0199    0.4840
  band No.  band energies     occupation 
      1      -2.4305      2.00000
      2      -1.6293      2.00000
      3       2.9081      2.00000
      4       2.9355      2.00000
      5       6.3181      0.00000
      6       6.5037      0.00000
      7      15.4848      0.00000
      8      15.4956      0.00000

 k-point    25 :       0.4840    0.0224    0.4840
  band No.  band energies     occupation 
      1      -2.4486      2.00000
      2      -1.6092      2.00000
      3       2.9027      2.00000
      4       2.9372      2.00000
      5       6.3199      0.00000
      6       6.5155      0.00000
      7      15.4571      0.00000
      8      15.4703      0.00000

 k-point    26 :       0.4840    0.0249    0.4840
  band No.  band energies     occupation 
      1      -2.4666      2.00000
      2      -1.5892      2.00000
      3       2.8967      2.00000
      4       2.9391      2.00000
      5       6.3221      0.00000
      6       6.5281      0.00000
      7      15.4275      0.00000
      8      15.4431      0.00000

 k-point    27 :       0.4840    0.0274    0.4840
  band No.  band energies     occupation 
      1      -2.4845      2.00000
      2      -1.5691      2.00000
      3       2.8900      2.00000
      4       2.9412      2.00000
      5       6.3248      0.00000
      6       6.5415      0.00000
      7      15.3969      0.00000
      8      15.4153      0.00000

 k-point    28 :       0.4840    0.0299    0.4840
  band No.  band energies     occupation 
      1      -2.5023      2.00000
      2      -1.5489      2.00000
      3       2.8827      2.00000
      4       2.9434      2.00000
      5       6.3278      0.00000
      6       6.5559      0.00000
      7      15.3652      0.00000
      8      15.3860      0.00000

 k-point    29 :       0.4840    0.0323    0.4840
  band No.  band energies     occupation 
      1      -2.5199      2.00000
      2      -1.5288      2.00000
      3       2.8748      2.00000
      4       2.9457      2.00000
      5       6.3312      0.00000
      6       6.5711      0.00000
      7      15.3323      0.00000
      8      15.3558      0.00000

 k-point    30 :       0.4840    0.0348    0.4840
  band No.  band energies     occupation 
      1      -2.5375      2.00000
      2      -1.5086      2.00000
      3       2.8664      2.00000
      4       2.9482      2.00000
      5       6.3349      0.00000
      6       6.5873      0.00000
      7      15.2983      0.00000
      8      15.3241      0.00000

 k-point    31 :       0.4840    0.0373    0.4840
  band No.  band energies     occupation 
      1      -2.5550      2.00000
      2      -1.4884      2.00000
      3       2.8574      2.00000
      4       2.9508      2.00000
      5       6.3389      0.00000
      6       6.6044      0.00000
      7      15.2633      0.00000
      8      15.2916      0.00000

 k-point    32 :       0.4840    0.0398    0.4840
  band No.  band energies     occupation 
      1      -2.5724      2.00000
      2      -1.4682      2.00000
      3       2.8478      2.00000
      4       2.9535      2.00000
      5       6.3432      0.00000
      6       6.6224      0.00000
      7      15.2280      0.00000
      8      15.2618      0.00000

 k-point    33 :       0.4840    0.0423    0.4840
  band No.  band energies     occupation 
      1      -2.5897      2.00000
      2      -1.4480      2.00000
      3       2.8377      2.00000
      4       2.9563      2.00000
      5       6.3478      0.00000
      6       6.6414      0.00000
      7      15.1905      0.00000
      8      15.2245      0.00000

 k-point    34 :       0.4840    0.0448    0.4840
  band No.  band energies     occupation 
      1      -2.6069      2.00000
      2      -1.4278      2.00000
      3       2.8272      2.00000
      4       2.9593      2.00000
      5       6.3526      0.00000
      6       6.6613      0.00000
      7      15.1526      0.00000
      8      15.1881      0.00000

 k-point    35 :       0.4840    0.0473    0.4840
  band No.  band energies     occupation 
      1      -2.6240      2.00000
      2      -1.4076      2.00000
      3       2.8162      2.00000
      4       2.9625      2.00000
      5       6.3576      0.00000
      6       6.6821      0.00000
      7      15.1141      0.00000
      8      15.1518      0.00000

 k-point    36 :       0.4840    0.0498    0.4840
  band No.  band energies     occupation 
      1      -2.6410      2.00000
      2      -1.3874      2.00000
      3       2.8047      2.00000
      4       2.9657      2.00000
      5       6.3628      0.00000
      6       6.7038      0.00000
      7      15.0748      0.00000
      8      15.1144      0.00000

 k-point    37 :       0.4840    0.0522    0.4840
  band No.  band energies     occupation 
      1      -2.6579      2.00000
      2      -1.3672      2.00000
      3       2.7929      2.00000
      4       2.9691      2.00000
      5       6.3682      0.00000
      6       6.7265      0.00000
      7      15.0348      0.00000
      8      15.0762      0.00000

 k-point    38 :       0.4840    0.0547    0.4840
  band No.  band energies     occupation 
      1      -2.6746      2.00000
      2      -1.3470      2.00000
      3       2.7806      2.00000
      4       2.9727      2.00000
      5       6.3739      0.00000
      6       6.7500      0.00000
      7      14.9942      0.00000
      8      15.0373      0.00000

 k-point    39 :       0.4840    0.0572    0.4840
  band No.  band energies     occupation 
      1      -2.6913      2.00000
      2      -1.3269      2.00000
      3       2.7680      2.00000
      4       2.9763      2.00000
[...]
      6       8.9666      0.00000
      7       9.3537      0.00000
      8      13.4605      0.00000

 k-point   183 :       0.4840    0.4154    0.4840
  band No.  band energies     occupation 
      1      -3.8725      2.00000
      2      -1.0656      2.00000
      3       4.1765      2.00000
      4       4.4437      2.00000
      5       7.6116      0.00000
      6       8.9686      0.00000
      7       9.3355      0.00000
      8      13.4595      0.00000

 k-point   184 :       0.4840    0.4179    0.4840
  band No.  band energies     occupation 
      1      -3.8730      2.00000
      2      -1.0725      2.00000
      3       4.2021      2.00000
      4       4.4525      2.00000
      5       7.5897      0.00000
      6       8.9712      0.00000
      7       9.3178      0.00000
      8      13.4566      0.00000

 k-point   185 :       0.4840    0.4204    0.4840
  band No.  band energies     occupation 
      1      -3.8734      2.00000
      2      -1.0793      2.00000
      3       4.2271      2.00000
      4       4.4610      2.00000
      5       7.5677      0.00000
      6       8.9743      0.00000
      7       9.3007      0.00000
      8      13.4522      0.00000

 k-point   186 :       0.4840    0.4229    0.4840
  band No.  band energies     occupation 
      1      -3.8737      2.00000
      2      -1.0859      2.00000
      3       4.2517      2.00000
      4       4.4694      2.00000
      5       7.5456      0.00000
      6       8.9779      0.00000
      7       9.2841      0.00000
      8      13.4465      0.00000

 k-point   187 :       0.4840    0.4254    0.4840
  band No.  band energies     occupation 
      1      -3.8740      2.00000
      2      -1.0924      2.00000
      3       4.2757      2.00000
      4       4.4774      2.00000
      5       7.5237      0.00000
      6       8.9818      0.00000
      7       9.2681      0.00000
      8      13.4398      0.00000

 k-point   188 :       0.4840    0.4279    0.4840
  band No.  band energies     occupation 
      1      -3.8742      2.00000
      2      -1.0987      2.00000
      3       4.2991      2.00000
      4       4.4853      2.00000
      5       7.5018      0.00000
      6       8.9860      0.00000
      7       9.2526      0.00000
      8      13.4322      0.00000

 k-point   189 :       0.4840    0.4303    0.4840
  band No.  band energies     occupation 
      1      -3.8742      2.00000
      2      -1.1048      2.00000
      3       4.3219      2.00000
      4       4.4928      2.00000
      5       7.4802      0.00000
      6       8.9904      0.00000
      7       9.2377      0.00000
      8      13.4239      0.00000

 k-point   190 :       0.4840    0.4328    0.4840
  band No.  band energies     occupation 
      1      -3.8742      2.00000
      2      -1.1108      2.00000
      3       4.3440      2.00000
      4       4.5001      2.00000
      5       7.4590      0.00000
      6       8.9950      0.00000
      7       9.2234      0.00000
      8      13.4153      0.00000

 k-point   191 :       0.4840    0.4353    0.4840
  band No.  band energies     occupation 
      1      -3.8742      2.00000
      2      -1.1166      2.00000
      3       4.3654      2.00000
      4       4.5071      2.00000
      5       7.4381      0.00000
      6       8.9998      0.00000
      7       9.2097      0.00000
      8      13.4062      0.00000

 k-point   192 :       0.4840    0.4378    0.4840
  band No.  band energies     occupation 
      1      -3.8740      2.00000
      2      -1.1222      2.00000
      3       4.3861      2.00000
      4       4.5139      2.00000
      5       7.4177      0.00000
      6       9.0046      0.00000
      7       9.1966      0.00000
      8      13.3971      0.00000

 k-point   193 :       0.4840    0.4403    0.4840
  band No.  band energies     occupation 
      1      -3.8738      2.00000
      2      -1.1277      2.00000
      3       4.4060      2.00000
      4       4.5203      2.00000
      5       7.3978      0.00000
      6       9.0095      0.00000
      7       9.1840      0.00000
      8      13.3878      0.00000

 k-point   194 :       0.4840    0.4428    0.4840
  band No.  band energies     occupation 
      1      -3.8735      2.00000
      2      -1.1330      2.00000
      3       4.4250      2.00000
      4       4.5265      2.00000
      5       7.3786      0.00000
      6       9.0143      0.00000
      7       9.1721      0.00000
      8      13.3786      0.00000

 k-point   195 :       0.4840    0.4453    0.4840
  band No.  band energies     occupation 
      1      -3.8731      2.00000
      2      -1.1381      2.00000
      3       4.4432      2.00000
      4       4.5324      2.00000
      5       7.3601      0.00000
      6       9.0191      0.00000
      7       9.1607      0.00000
      8      13.3695      0.00000

 k-point   196 :       0.4840    0.4478    0.4840
  band No.  band energies     occupation 
      1      -3.8726      2.00000
      2      -1.1431      2.00000
      3       4.4604      2.00000
      4       4.5380      2.00000
      5       7.3423      0.00000
      6       9.0238      0.00000
      7       9.1500      0.00000
      8      13.3607      0.00000

 k-point   197 :       0.4840    0.4502    0.4840
  band No.  band energies     occupation 
      1      -3.8721      2.00000
      2      -1.1478      2.00000
      3       4.4767      2.00000
      4       4.5432      2.00000
      5       7.3253      0.00000
      6       9.0284      0.00000
      7       9.1399      0.00000
      8      13.3521      0.00000

 k-point   198 :       0.4840    0.4527    0.4840
  band No.  band energies     occupation 
      1      -3.8715      2.00000
      2      -1.1524      2.00000
      3       4.4919      2.00000
      4       4.5482      2.00000
      5       7.3093      0.00000
      6       9.0328      0.00000
      7       9.1304      0.00000
      8      13.3439      0.00000

 k-point   199 :       0.4840    0.4552    0.4840
  band No.  band energies     occupation 
      1      -3.8708      2.00000
      2      -1.1569      2.00000
      3       4.5062      2.00000
      4       4.5529      2.00000
      5       7.2942      0.00000
      6       9.0371      0.00000
      7       9.1216      0.00000
      8      13.3361      0.00000

 k-point   200 :       0.4840    0.4577    0.4840
  band No.  band energies     occupation 
      1      -3.8701      2.00000
      2      -1.1611      2.00000
      3       4.5193      2.00000
      4       4.5572      2.00000
      5       7.2801      0.00000
      6       9.0411      0.00000
      7       9.1134      0.00000
      8      13.3287      0.00000

 k-point   201 :       0.4840    0.4602    0.4840
  band No.  band energies     occupation 
      1      -3.8692      2.00000
      2      -1.1651      2.00000
      3       4.5313      2.00000
      4       4.5612      2.00000
      5       7.2671      0.00000
      6       9.0449      0.00000
      7       9.1058      0.00000
      8      13.3219      0.00000

 k-point   202 :       0.4840    0.4627    0.4840
  band No.  band energies     occupation 
      1      -3.8683      2.00000
      2      -1.1690      2.00000
      3       4.5421      2.00000
      4       4.5649      2.00000
      5       7.2552      0.00000
      6       9.0484      0.00000
      7       9.0988      0.00000
      8      13.3155      0.00000

 k-point   203 :       0.4840    0.4652    0.4840
  band No.  band energies     occupation 
      1      -3.8674      2.00000
      2      -1.1727      2.00000
      3       4.5517      2.00000
      4       4.5682      2.00000
      5       7.2444      0.00000
      6       9.0517      0.00000
      7       9.0925      0.00000
      8      13.3098      0.00000

 k-point   204 :       0.4840    0.4677    0.4840
  band No.  band energies     occupation 
      1      -3.8663      2.00000
      2      -1.1762      2.00000
      3       4.5601      2.00000
      4       4.5713      2.00000
      5       7.2349      0.00000
      6       9.0546      0.00000
      7       9.0869      0.00000
      8      13.3046      0.00000

 k-point   205 :       0.4840    0.4701    0.4840
  band No.  band energies     occupation 
      1      -3.8652      2.00000
      2      -1.1795      2.00000
      3       4.5672      2.00000
      4       4.5740      2.00000
      5       7.2266      0.00000
      6       9.0573      0.00000
      7       9.0819      0.00000
      8      13.3001      0.00000

 k-point   206 :       0.4840    0.4726    0.4840
  band No.  band energies     occupation 
      1      -3.8640      2.00000
      2      -1.1827      2.00000
      3       4.5731      2.00000
      4       4.5763      2.00000
      5       7.2196      0.00000
      6       9.0596      0.00000
      7       9.0775      0.00000
      8      13.2962      0.00000

 k-point   207 :       0.4840    0.4751    0.4840
  band No.  band energies     occupation 
      1      -3.8628      2.00000
      2      -1.1856      2.00000
      3       4.5776      2.00000
      4       4.5783      2.00000
      5       7.2139      0.00000
      6       9.0616      0.00000
      7       9.0738      0.00000
      8      13.2930      0.00000

 k-point   208 :       0.4840    0.4776    0.4840
  band No.  band energies     occupation 
      1      -3.8615      2.00000
      2      -1.1884      2.00000
      3       4.5800      2.00000
      4       4.5807      2.00000
      5       7.2095      0.00000
      6       9.0633      0.00000
      7       9.0708      0.00000
      8      13.2905      0.00000

 k-point   209 :       0.4840    0.4801    0.4840
  band No.  band energies     occupation 
      1      -3.8601      2.00000
      2      -1.1910      2.00000
      3       4.5813      2.00000
      4       4.5826      2.00000
      5       7.2065      0.00000
      6       9.0646      0.00000
      7       9.0684      0.00000
      8      13.2887      0.00000

 k-point   210 :       0.4840    0.4826    0.4840
  band No.  band energies     occupation 
      1      -3.8586      2.00000
      2      -1.1933      2.00000
      3       4.5823      2.00000
      4       4.5830      2.00000
      5       7.2048      0.00000
      6       9.0655      0.00000
      7       9.0666      0.00000
      8      13.2876      0.00000

 k-point   211 :       0.4840    0.4851    0.4840
  band No.  band energies     occupation 
      1      -3.8571      2.00000
      2      -1.1955      2.00000
      3       4.5821      2.00000
      4       4.5829      2.00000
      5       7.2045      0.00000
      6       9.0656      0.00000
      7       9.0662      0.00000
      8      13.2872      0.00000

 k-point   212 :       0.4840    0.4876    0.4840
  band No.  band energies     occupation 
      1      -3.8555      2.00000
      2      -1.1975      2.00000
      3       4.5799      2.00000
      4       4.5832      2.00000
      5       7.2055      0.00000
      6       9.0651      0.00000
      7       9.0664      0.00000
      8      13.2875      0.00000

 k-point   213 :       0.4840    0.4900    0.4840
  band No.  band energies     occupation 
      1      -3.8538      2.00000
      2      -1.1994      2.00000
      3       4.5763      2.00000
      4       4.5832      2.00000
      5       7.2079      0.00000
      6       9.0654      0.00000
      7       9.0663      0.00000
      8      13.2885      0.00000

 k-point   214 :       0.4840    0.4925    0.4840
  band No.  band energies     occupation 
      1      -3.8521      2.00000
      2      -1.2010      2.00000
      3       4.5713      2.00000
      4       4.5827      2.00000
      5       7.2117      0.00000
      6       9.0658      0.00000
      7       9.0663      0.00000
      8      13.2903      0.00000

 k-point   215 :       0.4840    0.4950    0.4840
  band No.  band energies     occupation 
      1      -3.8503      2.00000
      2      -1.2024      2.00000
      3       4.5650      2.00000
      4       4.5820      2.00000
      5       7.2168      0.00000
      6       9.0650      0.00000
      7       9.0679      0.00000
      8      13.2928      0.00000

 k-point   216 :       0.4840    0.4975    0.4840
  band No.  band energies     occupation 
      1      -3.8485      2.00000
      2      -1.2037      2.00000
      3       4.5574      2.00000
      4       4.5809      2.00000
      5       7.2231      0.00000
      6       9.0639      0.00000
      7       9.0701      0.00000
      8      13.2960      0.00000


--------------------------------------------------------------------------------------------------------


 soft charge-density along one line, spin component           1
         0         1         2         3         4         5         6         7         8         9
 total charge-density along one line
 
 pseudopotential strength for first ion, spin component:           1
 19.451  -0.001   0.000  -0.000   0.000  -0.000   0.000  -0.000
 -0.001   0.006  -0.000   0.000  -0.000   0.000  -0.000   0.000
  0.000  -0.000   4.361   0.000  -0.000  -0.005  -0.000   0.000
 -0.000   0.000   0.000   4.361   0.000  -0.000  -0.005  -0.000
  0.000  -0.000  -0.000   0.000   4.361   0.000  -0.000  -0.005
 -0.000   0.000  -0.005  -0.000   0.000   0.005   0.000  -0.000
  0.000  -0.000  -0.000  -0.005  -0.000   0.000   0.005   0.000
 -0.000   0.000   0.000  -0.000  -0.005  -0.000   0.000   0.005
 total augmentation occupancy for first ion, spin component:           1
  2.000   0.000   0.000   0.000   0.000   0.000   0.000   0.000
  0.000   0.000   0.000   0.000   0.000   0.000   0.000   0.000
  0.000   0.000   0.667   0.000   0.000   0.000   0.000   0.000
  0.000   0.000   0.000   0.667   0.000   0.000   0.000   0.000
  0.000   0.000   0.000   0.000   0.667   0.000   0.000   0.000
  0.000   0.000   0.000   0.000   0.000   0.000   0.000   0.000
  0.000   0.000   0.000   0.000   0.000   0.000   0.000   0.000
  0.000   0.000   0.000   0.000   0.000   0.000   0.000   0.000


------------------------ aborting loop because EDIFF is reached ----------------------------------------


 


 total charge     
 
# of ion     s       p       d       tot
----------------------------------------
  1        0.752   0.957   0.000   1.709
  2        0.752   0.957   0.000   1.709
------------------------------------------------
tot        1.504   1.913   0.000   3.417
 
    CHARGE:  cpu time    0.0040: real time    0.0052
    FORLOC:  cpu time    0.0000: real time    0.0002
    FORNL :  cpu time    0.0080: real time    0.0064
    STRESS:  cpu time    0.0720: real time    0.0710
    FORCOR:  cpu time    0.0000: real time    0.0014
    FORHAR:  cpu time    0.0040: real time    0.0010
    OFIELD:  cpu time    0.0000: real time    0.0000

  FORCE on cell =-STRESS in cart. coord.  units (eV):
  Direction    XX          YY          ZZ          XY          YZ          ZX
  --------------------------------------------------------------------------------------
  Alpha Z     2.36771     2.36771     2.36771
  Ewald     -76.17385   -76.17385   -76.17385     0.00000     0.00000    -0.00000
  Hartree     5.02913     5.02913     5.02913     0.00000    -0.00000    -0.00000
  E(xc)     -25.95274   -25.95274   -25.95274    -0.00000     0.00000     0.00000
  Local     -30.65647   -30.65647   -30.65647     0.00001    -0.00001    -0.00001
  n-local    76.60510    82.56201    81.76108    -1.19414    -2.67699    -0.77691
  augment   -12.49287   -12.49287   -12.49287    -0.00001     0.00001     0.00001
  Kinetic    55.69959    57.65130    59.30500    -0.96127    -3.76950    -0.97046
  Fock        0.00000     0.00000     0.00000     0.00000     0.00000     0.00000
  -------------------------------------------------------------------------------------
  Total      -0.01772    -0.01772    -0.01772    -0.00000    -0.00000     0.00000
  in kB      -0.70908    -0.70908    -0.70908    -0.00000    -0.00000     0.00000
  external pressure =       -0.71 kB  Pullay stress =        0.00 kB


 VOLUME and BASIS-vectors are now :
 -----------------------------------------------------------------------------
  energy-cutoff  :      500.00
  volume of cell :       40.05
      direct lattice vectors                 reciprocal lattice vectors
     2.715500000  2.715500000  0.000000000     0.184128153  0.184128153  0.184128153
     2.715500000  0.000000000 -2.715500000     0.184128153 -0.184128153 -0.184128153
     0.000000000  2.715500000 -2.715500000    -0.184128153  0.184128153 -0.184128153

  length of vectors
     3.840296929  3.840296929  3.840296929     0.318919316  0.318919316  0.318919316


 FORCES acting on ions
    electron-ion (+dipol)            ewald-force                    non-local-force                 convergence-correction
 -----------------------------------------------------------------------------------------------
   -.809E-08 -.448E-08 0.449E-08   -.923E-14 -.515E-14 0.930E-14   0.520E-16 0.486E-16 -.486E-16   -.187E-09 -.187E-09 0.187E-09
   0.809E-08 0.449E-08 -.449E-08   0.907E-14 0.563E-14 -.939E-14   -.590E-16 -.625E-16 0.278E-16   0.187E-09 0.187E-09 -.187E-09
 -----------------------------------------------------------------------------------------------
   -.464E-14 0.436E-13 -.946E-13   -.164E-15 0.474E-15 -.970E-16   -.694E-17 -.139E-16 -.208E-16   0.533E-14 0.441E-14 0.384E-14
 
 
 POSITION                                       TOTAL-FORCE (eV/Angst)
 -----------------------------------------------------------------------------------
      0.00000      0.00000      0.00000        -0.000000     -0.000000      0.000000
      1.35775      1.35775     -1.35775         0.000000      0.000000     -0.000000
 -----------------------------------------------------------------------------------
    total drift:                                0.000000      0.000000     -0.000000


--------------------------------------------------------------------------------------------------------



  FREE ENERGIE OF THE ION-ELECTRON SYSTEM (eV)
  ---------------------------------------------------
  free  energy   TOTEN  =       -11.60407700 eV

  energy  without entropy=      -11.60407700  energy(sigma->0) =      -11.60407700
 


--------------------------------------------------------------------------------------------------------


    POTLOK:  cpu time    0.0000: real time    0.0028


--------------------------------------------------------------------------------------------------------




--------------------------------------------------------------------------------------------------------


 writing wavefunctions
     LOOP+:  cpu time    1.5241: real time    1.6419
    4ORBIT:  cpu time    0.0000: real time    0.0000
 


 total charge     
 
# of ion     s       p       d       tot
----------------------------------------
  1        0.752   0.957   0.000   1.709
  2        0.752   0.957   0.000   1.709
------------------------------------------------
tot        1.504   1.913   0.000   3.417
 

 total amount of memory used by VASP on root node    34845. kBytes
========================================================================

   base      :      30000. kBytes
   nonl-proj :       2494. kBytes
   fftplans  :        428. kBytes
   grid      :        621. kBytes
   one-center:          3. kBytes
   wavefun   :       1299. kBytes
 
  
  
 General timing and accounting informations for this job:
 ========================================================
  
                  Total CPU time used (sec):        3.976
                            User time (sec):        2.644
                          System time (sec):        1.332
                         Elapsed time (sec):        5.682
  
                   Maximum memory used (kb):       27216.
                   Average memory used (kb):           0.
  
                          Minor page faults:         7141
                          Major page faults:            0
                 Voluntary context switches:         1002
