PROCAR new format
# of k-points:  216         # of bands:   8         # of ions:   2

 k-point    1 :    0.00000000 0.00000000 0.00000000     weight = 0.00490196

band   1 # energy   -6.18178068 # occ.  2.00000000
 
ion      s      p      d    tot
  1  0.214  0.000  0.000  0.214
  2  0.214  0.000  0.000  0.214
tot  0.428  0.000  0.000  0.428
 
band   2 # energy    5.77669174 # occ.  2.00000000
 
ion      s      p      d    tot
  1  0.000  0.219  0.000  0.219
  2  0.000  0.219  0.000  0.219
tot  0.000  0.437  0.000  0.437
 
band   3 # energy    5.77669177 # occ.  2.00000000
 
ion      s      p      d    tot
  1  0.000  0.219  0.000  0.219
  2  0.000  0.219  0.000  0.219
tot  0.000  0.437  0.000  0.437
 
band   4 # energy    5.77669177 # occ.  2.00000000
 
ion      s      p      d    tot
  1  0.000  0.219  0.000  0.219
  2  0.000  0.219  0.000  0.219
tot  0.000  0.437  0.000  0.437
 
band   5 # energy    8.29669328 # occ.  0.00000000
 
ion      s      p      d    tot
  1  0.000  0.154  0.000  0.154
  2  0.000  0.154  0.000  0.154
tot  0.000  0.307  0.000  0.307
 
band   6 # energy    8.29669329 # occ.  0.00000000
 
ion      s      p      d    tot
  1  0.000  0.154  0.000  0.154
  2  0.000  0.154  0.000  0.154
tot  0.000  0.307  0.000  0.307
 
band   7 # energy    8.29669330 # occ.  0.00000000
 
ion      s      p      d    tot
  1  0.000  0.154  0.000  0.154
  2  0.000  0.154  0.000  0.154
tot  0.000  0.307  0.000  0.307
 
band   8 # energy    8.98347414 # occ.  0.00000000
 
ion      s      p      d    tot
  1  0.360  0.000  0.000  0.360
  2  0.360  0.000  0.000  0.360
tot  0.720  0.000  0.000  0.720
 

 k-point    2 :    0.16666667 0.00000000 0.00000000     weight = 0.03921569

band   1 # energy   -5.82043008 # occ.  2.00000000
 
ion      s      p      d    tot
  1  0.212  0.004  0.000  0.216
  2  0.212  0.004  0.000  0.216
tot  0.425  0.008  0.000  0.433
 
band   2 # energy    3.37979327 # occ.  2.00000000
 
ion      s      p      d    tot
  1  0.078  0.143  0.000  0.221
  2  0.078  0.143  0.000  0.221
tot  0.156  0.287  0.000  0.442
 
band   3 # energy    5.32548196 # occ.  2.00000000
 
ion      s      p      d    tot
  1  0.000  0.215  0.000  0.215
  2  0.000  0.215  0.000  0.215
tot  0.000  0.430  0.000  0.430
 
band   4 # energy    5.32548198 # occ.  2.00000000
 
ion      s      p      d    tot
  1  0.000  0.215  0.000  0.215
  2  0.000  0.215  0.000  0.215
tot  0.000  0.430  0.000  0.430
 
band   5 # energy    8.03450522 # occ.  0.00000000
 
ion      s      p      d    tot
  1  0.130  0.073  0.000  0.203
  2  0.130  0.073  0.000  0.203
tot  0.260  0.146  0.000  0.405
 
band   6 # energy    8.94316013 # occ.  0.00000000
 
ion      s      p      d    tot
  1  0.000  0.156  0.000  0.156
  2  0.000  0.156  0.000  0.156
tot  0.000  0.313  0.000  0.313
 
band   7 # energy    8.94316014 # occ.  0.00000000
 
ion      s      p      d    tot
  1  0.000  0.156  0.000  0.156
  2  0.000  0.156  0.000  0.156
tot  0.000  0.313  0.000  0.313
 
band   8 # energy   11.09270381 # occ.  0.00000000
 
ion      s      p      d    tot
  1  0.169  0.120  0.000  0.289
  2  0.169  0.120  0.000  0.289
tot  0.337  0.240  0.000  0.577
 

 k-point    3 :    0.33333333 0.00000000 0.00000000     weight = 0.03921569

band   1 # energy   -4.80331613 # occ.  2.00000000
 
ion      s      p      d    tot
  1  0.212  0.013  0.000  0.225
  2  0.212  0.013  0.000  0.225
tot  0.424  0.025  0.000  0.449
 
band   2 # energy    0.42472421 # occ.  2.00000000
 
ion      s      p      d    tot
  1  0.106  0.104  0.000  0.210
  2  0.106  0.104  0.000  0.210
tot  0.212  0.208  0.000  0.420
 
band   3 # energy    4.77765477 # occ.  2.00000000
 
ion      s      p      d    tot
  1  0.000  0.218  0.000  0.218
  2  0.000  0.218  0.000  0.218
tot  0.000  0.436  0.000  0.436
 
band   4 # energy    4.77765479 # occ.  2.00000000
 
ion      s      p      d    tot
  1  0.000  0.218  0.000  0.218
  2  0.000  0.218  0.000  0.218
tot  0.000  0.436  0.000  0.436
 
band   5 # energy    7.43039303 # occ.  0.00000000
 
ion      s      p      d    tot
  1  0.175  0.031  0.000  0.207
  2  0.175  0.031  0.000  0.207
tot  0.351  0.063  0.000  0.413
 
band   6 # energy    9.23344900 # occ.  0.00000000
 
ion      s      p      d    tot
  1  0.000  0.117  0.000  0.117
  2  0.000  0.117  0.000  0.117
tot  0.000  0.233  0.000  0.233
 
band   7 # energy    9.23344901 # occ.  0.00000000
 
ion      s      p      d    tot
  1  0.000  0.117  0.000  0.117
  2  0.000  0.117  0.000  0.117
tot  0.000  0.233  0.000  0.233
 
band   8 # energy   13.44999610 # occ.  0.00000000
 
ion      s      p      d    tot
  1  0.014  0.122  0.000  0.136
  2  0.015  0.122  0.000  0.137
tot  0.029  0.244  0.000  0.273
 

 k-point    4 :    0.50000000 0.00000000 0.00000000     weight = 0.01960784

band   1 # energy   -3.84289814 # occ.  2.00000000
 
ion      s      p      d    tot
  1  0.227  0.014  0.000  0.240
  2  0.227  0.014  0.000  0.240
tot  0.453  0.027  0.000  0.481
 
band   2 # energy   -1.21578679 # occ.  2.00000000
 
ion      s      p      d    tot
  1  0.098  0.094  0.000  0.193
  2  0.098  0.094  0.000  0.193
tot  0.197  0.189  0.000  0.385
 
band   3 # energy    4.58087320 # occ.  2.00000000
 
ion      s      p      d    tot
  1  0.000  0.221  0.000  0.221
  2  0.000  0.221  0.000  0.221
tot  0.000  0.441  0.000  0.441
 
band   4 # energy    4.58087322 # occ.  2.00000000
 
ion      s      p      d    tot
  1  0.000  0.221  0.000  0.221
  2  0.000  0.221  0.000  0.221
tot  0.000  0.441  0.000  0.441
 
band   5 # energy    7.20229693 # occ.  0.00000000
 
ion      s      p      d    tot
  1  0.189  0.019  0.000  0.208
  2  0.189  0.019  0.000  0.208
tot  0.377  0.038  0.000  0.415
 
band   6 # energy    9.06376347 # occ.  0.00000000
 
ion      s      p      d    tot
  1  0.000  0.096  0.000  0.096
  2  0.000  0.096  0.000  0.096
tot  0.000  0.192  0.000  0.192
 
band   7 # energy    9.06376348 # occ.  0.00000000
 
ion      s      p      d    tot
  1  0.000  0.096  0.000  0.096
  2  0.000  0.096  0.000  0.096
tot  0.000  0.192  0.000  0.192
 
band   8 # energy   13.28384781 # occ.  0.00000000
 
ion      s      p      d    tot
  1  0.006  0.052  0.000  0.059
  2  0.006  0.052  0.000  0.059
tot  0.012  0.105  0.000  0.117
 

 k-point    5 :    0.16666667 0.16666667 0.00000000     weight = 0.02941176

band   1 # energy   -5.69753733 # occ.  2.00000000
 
ion      s      p      d    tot
  1  0.212  0.005  0.000  0.217
  2  0.212  0.005  0.000  0.217
tot  0.423  0.011  0.000  0.434
 
band   2 # energy    3.72435541 # occ.  2.00000000
 
ion      s      p      d    tot
  1  0.125  0.128  0.000  0.253
  2  0.125  0.128  0.000  0.253
tot  0.250  0.256  0.000  0.507
 
band   3 # energy    4.57970858 # occ.  2.00000000
 
ion      s      p      d    tot
  1  0.000  0.203  0.000  0.203
  2  0.000  0.203  0.000  0.203
tot  0.000  0.406  0.000  0.406
 
band   4 # energy    4.57970859 # occ.  2.00000000
 
ion      s      p      d    tot
  1  0.000  0.203  0.000  0.203
  2  0.000  0.203  0.000  0.203
tot  0.000  0.406  0.000  0.406
 
band   5 # energy    7.40358273 # occ.  0.00000000
 
ion      s      p      d    tot
  1  0.031  0.103  0.000  0.133
  2  0.031  0.103  0.000  0.133
tot  0.061  0.206  0.000  0.267
 
band   6 # energy    9.96569181 # occ.  0.00000000
 
ion      s      p      d    tot
  1  0.119  0.068  0.000  0.188
  2  0.119  0.068  0.000  0.188
tot  0.238  0.137  0.000  0.375
 
band   7 # energy   10.07398218 # occ.  0.00000000
 
ion      s      p      d    tot
  1  0.000  0.169  0.000  0.169
  2  0.000  0.169  0.000  0.169
tot  0.000  0.338  0.000  0.338
 
band   8 # energy   10.07398273 # occ.  0.00000000
 
ion      s      p      d    tot
  1  0.000  0.169  0.000  0.169
  2  0.000  0.169  0.000  0.169
tot  0.000  0.338  0.000  0.338
 

 k-point    6 :    0.33333333 0.16666667 0.00000000     weight = 0.11764706

band   1 # energy   -4.88161528 # occ.  2.00000000
 
ion      s      p      d    tot
  1  0.209  0.013  0.000  0.223
  2  0.209  0.013  0.000  0.223
tot  0.418  0.027  0.000  0.445
 
band   2 # energy    1.32889939 # occ.  2.00000000
 
ion      s      p      d    tot
  1  0.128  0.104  0.000  0.233
  2  0.128  0.104  0.000  0.233
tot  0.257  0.208  0.000  0.465
 
band   3 # energy    3.76785306 # occ.  2.00000000
 
ion      s      p      d    tot
  1  0.034  0.170  0.000  0.204
  2  0.034  0.170  0.000  0.204
tot  0.069  0.340  0.000  0.409
 
band   4 # energy    4.02790599 # occ.  2.00000000
 
ion      s      p      d    tot
  1  0.000  0.203  0.000  0.203
  2  0.000  0.203  0.000  0.203
tot  0.000  0.407  0.000  0.407
 
band   5 # energy    7.65717862 # occ.  0.00000000
 
ion      s      p      d    tot
  1  0.041  0.089  0.000  0.130
  2  0.041  0.089  0.000  0.130
tot  0.082  0.178  0.000  0.259
 
band   6 # energy    9.75074213 # occ.  0.00000000
 
ion      s      p      d    tot
  1  0.073  0.084  0.000  0.157
  2  0.073  0.084  0.000  0.157
tot  0.145  0.168  0.000  0.313
 
band   7 # energy   10.22204810 # occ.  0.00000000
 
ion      s      p      d    tot
  1  0.024  0.099  0.000  0.122
  2  0.024  0.099  0.000  0.122
tot  0.047  0.197  0.000  0.245
 
band   8 # energy   10.79900599 # occ.  0.00000000
 
ion      s      p      d    tot
  1  0.000  0.143  0.000  0.143
  2  0.000  0.143  0.000  0.143
tot  0.000  0.285  0.000  0.285
 

 k-point    7 :    0.50000000 0.16666667 0.00000000     weight = 0.11764706

band   1 # energy   -3.68575322 # occ.  2.00000000
 
ion      s      p      d    tot
  1  0.218  0.019  0.000  0.238
  2  0.218  0.019  0.000  0.238
tot  0.437  0.039  0.000  0.476
 
band   2 # energy   -0.84467759 # occ.  2.00000000
 
ion      s      p      d    tot
  1  0.122  0.088  0.000  0.209
  2  0.122  0.088  0.000  0.209
tot  0.243  0.175  0.000  0.419
 
band   3 # energy    2.98017134 # occ.  2.00000000
 
ion      s      p      d    tot
  1  0.043  0.156  0.000  0.200
  2  0.043  0.156  0.000  0.200
tot  0.087  0.313  0.000  0.399
 
band   4 # energy    3.99983767 # occ.  2.00000000
 
ion      s      p      d    tot
  1  0.000  0.208  0.000  0.208
  2  0.000  0.208  0.000  0.208
tot  0.000  0.417  0.000  0.417
 
band   5 # energy    7.72525298 # occ.  0.00000000
 
ion      s      p      d    tot
  1  0.064  0.060  0.000  0.124
  2  0.064  0.060  0.000  0.124
tot  0.128  0.120  0.000  0.248
 
band   6 # energy    9.80463873 # occ.  0.00000000
 
ion      s      p      d    tot
  1  0.061  0.101  0.000  0.163
  2  0.061  0.101  0.000  0.163
tot  0.122  0.203  0.000  0.325
 
band   7 # energy   10.34544111 # occ.  0.00000000
 
ion      s      p      d    tot
  1  0.000  0.109  0.000  0.109
  2  0.000  0.109  0.000  0.109
tot  0.000  0.219  0.000  0.219
 
band   8 # energy   12.10171835 # occ.  0.00000000
 
ion      s      p      d    tot
  1  0.021  0.105  0.000  0.125
  2  0.021  0.105  0.000  0.125
tot  0.041  0.209  0.000  0.250
 

 k-point    8 :   -0.33333333 0.16666667 0.00000000     weight = 0.11764706

band   1 # energy   -4.07277051 # occ.  2.00000000
 
ion      s      p      d    tot
  1  0.213  0.018  0.000  0.232
  2  0.213  0.018  0.000  0.232
tot  0.426  0.037  0.000  0.463
 
band   2 # energy   -0.24325194 # occ.  2.00000000
 
ion      s      p      d    tot
  1  0.127  0.090  0.000  0.217
  2  0.127  0.090  0.000  0.217
tot  0.253  0.181  0.000  0.434
 
band   3 # energy    2.70765489 # occ.  2.00000000
 
ion      s      p      d    tot
  1  0.036  0.156  0.000  0.191
  2  0.036  0.156  0.000  0.191
tot  0.071  0.312  0.000  0.383
 
band   4 # energy    4.48061062 # occ.  2.00000000
 
ion      s      p      d    tot
  1  0.000  0.215  0.000  0.215
  2  0.000  0.215  0.000  0.215
tot  0.000  0.431  0.000  0.431
 
band   5 # energy    8.13962196 # occ.  0.00000000
 
ion      s      p      d    tot
  1  0.082  0.064  0.000  0.147
  2  0.082  0.064  0.000  0.147
tot  0.165  0.129  0.000  0.293
 
band   6 # energy    9.80717929 # occ.  0.00000000
 
ion      s      p      d    tot
  1  0.045  0.100  0.000  0.146
  2  0.045  0.100  0.000  0.146
tot  0.091  0.201  0.000  0.292
 
band   7 # energy    9.95357014 # occ.  0.00000000
 
ion      s      p      d    tot
  1  0.000  0.118  0.000  0.118
  2  0.000  0.118  0.000  0.118
tot  0.000  0.237  0.000  0.237
 
band   8 # energy   12.96246709 # occ.  0.00000000
 
ion      s      p      d    tot
  1  0.033  0.112  0.000  0.145
  2  0.033  0.113  0.000  0.145
tot  0.065  0.225  0.000  0.291
 

 k-point    9 :   -0.16666667 0.16666667 0.00000000     weight = 0.05882353

band   1 # energy   -5.23176486 # occ.  2.00000000
 
ion      s      p      d    tot
  1  0.210  0.010  0.000  0.220
  2  0.210  0.010  0.000  0.220
tot  0.421  0.020  0.000  0.441
 
band   2 # energy    2.04843199 # occ.  2.00000000
 
ion      s      p      d    tot
  1  0.125  0.113  0.000  0.238
  2  0.125  0.113  0.000  0.238
tot  0.249  0.226  0.000  0.475
 
band   3 # energy    3.34308273 # occ.  2.00000000
 
ion      s      p      d    tot
  1  0.012  0.170  0.000  0.182
  2  0.012  0.170  0.000  0.182
tot  0.024  0.340  0.000  0.365
 
band   4 # energy    5.21406586 # occ.  2.00000000
 
ion      s      p      d    tot
  1  0.000  0.223  0.000  0.223
  2  0.000  0.223  0.000  0.223
tot  0.000  0.445  0.000  0.445
 
band   5 # energy    8.74072547 # occ.  0.00000000
 
ion      s      p      d    tot
  1  0.098  0.093  0.000  0.190
  2  0.098  0.093  0.000  0.190
tot  0.195  0.186  0.000  0.381
 
band   6 # energy    9.28724260 # occ.  0.00000000
 
ion      s      p      d    tot
  1  0.000  0.152  0.000  0.152
  2  0.000  0.152  0.000  0.152
tot  0.000  0.304  0.000  0.304
 
band   7 # energy    9.54084407 # occ.  0.00000000
 
ion      s      p      d    tot
  1  0.031  0.123  0.000  0.154
  2  0.031  0.123  0.000  0.154
tot  0.062  0.246  0.000  0.308
 
band   8 # energy   11.32356421 # occ.  0.00000000
 
ion      s      p      d    tot
  1  0.070  0.097  0.000  0.167
  2  0.070  0.098  0.000  0.167
tot  0.140  0.195  0.000  0.335
 

 k-point   10 :    0.33333333 0.33333333 0.00000000     weight = 0.02941176

band   1 # energy   -4.27721327 # occ.  2.00000000
 
ion      s      p      d    tot
  1  0.205  0.021  0.000  0.226
  2  0.205  0.021  0.000  0.226
tot  0.410  0.042  0.000  0.452
 
band   2 # energy    0.76222439 # occ.  2.00000000
 
ion      s      p      d    tot
  1  0.177  0.079  0.000  0.255
  2  0.177  0.079  0.000  0.255
tot  0.353  0.158  0.000  0.511
 
band   3 # energy    3.35603931 # occ.  2.00000000
 
ion      s      p      d    tot
  1  0.000  0.199  0.000  0.199
  2  0.000  0.199  0.000  0.199
tot  0.000  0.399  0.000  0.399
 
band   4 # energy    3.35603932 # occ.  2.00000000
 
ion      s      p      d    tot
  1  0.000  0.199  0.000  0.199
  2  0.000  0.199  0.000  0.199
tot  0.000  0.399  0.000  0.399
 
band   5 # energy    6.40184656 # occ.  0.00000000
 
ion      s      p      d    tot
  1  0.052  0.057  0.000  0.109
  2  0.052  0.057  0.000  0.109
tot  0.104  0.115  0.000  0.218
 
band   6 # energy    7.65921773 # occ.  0.00000000
 
ion      s      p      d    tot
  1  0.044  0.031  0.000  0.075
  2  0.044  0.031  0.000  0.075
tot  0.088  0.063  0.000  0.150
 
band   7 # energy   12.96572714 # occ.  0.00000000
 
ion      s      p      d    tot
  1  0.000  0.169  0.000  0.169
  2  0.000  0.169  0.000  0.169
tot  0.000  0.338  0.000  0.338
 
band   8 # energy   12.96572969 # occ.  0.00000000
 
ion      s      p      d    tot
  1  0.000  0.169  0.000  0.169
  2  0.000  0.169  0.000  0.169
tot  0.000  0.338  0.000  0.338
 

 k-point   11 :    0.50000000 0.33333333 0.00000000     weight = 0.11764706

band   1 # energy   -3.11200974 # occ.  2.00000000
 
ion      s      p      d    tot
  1  0.205  0.031  0.000  0.236
  2  0.205  0.031  0.000  0.236
tot  0.409  0.063  0.000  0.472
 
band   2 # energy   -0.78809259 # occ.  2.00000000
 
ion      s      p      d    tot
  1  0.187  0.061  0.000  0.248
  2  0.187  0.061  0.000  0.248
tot  0.374  0.122  0.000  0.496
 
band   3 # energy    2.11951625 # occ.  2.00000000
 
ion      s      p      d    tot
  1  0.006  0.164  0.000  0.170
  2  0.006  0.164  0.000  0.170
tot  0.012  0.328  0.000  0.340
 
band   4 # energy    3.22035118 # occ.  2.00000000
 
ion      s      p      d    tot
  1  0.000  0.201  0.000  0.201
  2  0.000  0.201  0.000  0.201
tot  0.000  0.401  0.000  0.401
 
band   5 # energy    6.73368563 # occ.  0.00000000
 
ion      s      p      d    tot
  1  0.051  0.044  0.000  0.095
  2  0.051  0.044  0.000  0.095
tot  0.102  0.087  0.000  0.189
 
band   6 # energy    8.40000602 # occ.  0.00000000
 
ion      s      p      d    tot
  1  0.035  0.073  0.000  0.108
  2  0.035  0.073  0.000  0.108
tot  0.069  0.146  0.000  0.215
 
band   7 # energy   13.15473954 # occ.  0.00000000
 
ion      s      p      d    tot
  1  0.041  0.144  0.000  0.186
  2  0.041  0.144  0.000  0.186
tot  0.083  0.288  0.000  0.371
 
band   8 # energy   13.15962520 # occ.  0.00000000
 
ion      s      p      d    tot
  1  0.000  0.130  0.000  0.130
  2  0.000  0.130  0.000  0.130
tot  0.000  0.260  0.000  0.260
 

 k-point   12 :   -0.33333333 0.33333333 0.00000000     weight = 0.05882353

band   1 # energy   -2.91229363 # occ.  2.00000000
 
ion      s      p      d    tot
  1  0.216  0.028  0.000  0.244
  2  0.216  0.028  0.000  0.244
tot  0.432  0.056  0.000  0.488
 
band   2 # energy   -0.99529715 # occ.  2.00000000
 
ion      s      p      d    tot
  1  0.177  0.063  0.000  0.240
  2  0.177  0.063  0.000  0.240
tot  0.355  0.126  0.000  0.481
 
band   3 # energy    1.32878028 # occ.  2.00000000
 
ion      s      p      d    tot
  1  0.004  0.152  0.000  0.156
  2  0.004  0.152  0.000  0.156
tot  0.008  0.304  0.000  0.311
 
band   4 # energy    3.66374004 # occ.  2.00000000
 
ion      s      p      d    tot
  1  0.000  0.205  0.000  0.205
  2  0.000  0.205  0.000  0.205
tot  0.000  0.410  0.000  0.410
 
band   5 # energy    7.24122134 # occ.  0.00000000
 
ion      s      p      d    tot
  1  0.055  0.046  0.000  0.101
  2  0.055  0.046  0.000  0.101
tot  0.110  0.092  0.000  0.201
 
band   6 # energy   11.48102690 # occ.  0.00000000
 
ion      s      p      d    tot
  1  0.006  0.078  0.000  0.084
  2  0.006  0.078  0.000  0.084
tot  0.012  0.156  0.000  0.168
 
band   7 # energy   12.18803586 # occ.  0.00000000
 
ion      s      p      d    tot
  1  0.000  0.156  0.000  0.156
  2  0.000  0.156  0.000  0.156
tot  0.000  0.311  0.000  0.311
 
band   8 # energy   12.75304476 # occ.  0.00000000
 
ion      s      p      d    tot
  1  0.045  0.138  0.000  0.183
  2  0.046  0.136  0.000  0.182
tot  0.092  0.274  0.000  0.366
 

 k-point   13 :    0.50000000 0.50000000 0.00000000     weight = 0.01470588

band   1 # energy   -2.03801544 # occ.  2.00000000
 
ion      s      p      d    tot
  1  0.195  0.046  0.000  0.240
  2  0.195  0.046  0.000  0.240
tot  0.389  0.091  0.000  0.481
 
band   2 # energy   -2.03801544 # occ.  2.00000000
 
ion      s      p      d    tot
  1  0.195  0.046  0.000  0.240
  2  0.195  0.046  0.000  0.240
tot  0.389  0.091  0.000  0.481
 
band   3 # energy    2.92203236 # occ.  2.00000000
 
ion      s      p      d    tot
  1  0.000  0.199  0.000  0.199
  2  0.000  0.199  0.000  0.199
tot  0.000  0.398  0.000  0.398
 
band   4 # energy    2.92203238 # occ.  2.00000000
 
ion      s      p      d    tot
  1  0.000  0.199  0.000  0.199
  2  0.000  0.199  0.000  0.199
tot  0.000  0.398  0.000  0.398
 
band   5 # energy    6.37522704 # occ.  0.00000000
 
ion      s      p      d    tot
  1  0.053  0.035  0.000  0.087
  2  0.053  0.035  0.000  0.087
tot  0.105  0.070  0.000  0.175
 
band   6 # energy    6.37522704 # occ.  0.00000000
 
ion      s      p      d    tot
  1  0.053  0.035  0.000  0.087
  2  0.053  0.035  0.000  0.087
tot  0.105  0.070  0.000  0.175
 
band   7 # energy   15.75126200 # occ.  0.00000000
 
ion      s      p      d    tot
  1  0.000  0.243  0.000  0.243
  2  0.000  0.244  0.000  0.244
tot  0.000  0.488  0.000  0.488
 
band   8 # energy   15.75176594 # occ.  0.00000000
 
ion      s      p      d    tot
  1  0.000  0.242  0.000  0.242
  2  0.000  0.244  0.000  0.244
tot  0.000  0.487  0.000  0.487
 

 k-point   14 :    0.50000000 0.33333333 0.16666667     weight = 0.11764706

band   1 # energy   -3.89054573 # occ.  2.00000000
 
ion      s      p      d    tot
  1  0.208  0.023  0.000  0.231
  2  0.208  0.023  0.000  0.231
tot  0.416  0.045  0.000  0.461
 
band   2 # energy    0.13027132 # occ.  2.00000000
 
ion      s      p      d    tot
  1  0.172  0.076  0.000  0.248
  2  0.172  0.076  0.000  0.248
tot  0.344  0.152  0.000  0.496
 
band   3 # energy    2.18069190 # occ.  2.00000000
 
ion      s      p      d    tot
  1  0.012  0.160  0.000  0.172
  2  0.012  0.160  0.000  0.172
tot  0.024  0.319  0.000  0.343
 
band   4 # energy    3.46928799 # occ.  2.00000000
 
ion      s      p      d    tot
  1  0.004  0.186  0.000  0.190
  2  0.004  0.186  0.000  0.190
tot  0.009  0.371  0.000  0.380
 
band   5 # energy    8.54869733 # occ.  0.00000000
 
ion      s      p      d    tot
  1  0.030  0.103  0.000  0.132
  2  0.030  0.103  0.000  0.132
tot  0.059  0.206  0.000  0.265
 
band   6 # energy    9.39333015 # occ.  0.00000000
 
ion      s      p      d    tot
  1  0.021  0.060  0.000  0.082
  2  0.021  0.060  0.000  0.082
tot  0.043  0.121  0.000  0.163
 
band   7 # energy    9.93388987 # occ.  0.00000000
 
ion      s      p      d    tot
  1  0.063  0.104  0.000  0.168
  2  0.063  0.104  0.000  0.168
tot  0.127  0.208  0.000  0.335
 
band   8 # energy   12.76526771 # occ.  0.00000000
 
ion      s      p      d    tot
  1  0.006  0.151  0.000  0.157
  2  0.006  0.151  0.000  0.157
tot  0.011  0.302  0.000  0.314
 

 k-point   15 :   -0.33333333 0.33333333 0.16666667     weight = 0.11764706

band   1 # energy   -2.90187579 # occ.  2.00000000
 
ion      s      p      d    tot
  1  0.217  0.027  0.000  0.245
  2  0.217  0.027  0.000  0.245
tot  0.435  0.055  0.000  0.489
 
band   2 # energy   -1.07096220 # occ.  2.00000000
 
ion      s      p      d    tot
  1  0.167  0.067  0.000  0.234
  2  0.167  0.067  0.000  0.234
tot  0.333  0.134  0.000  0.467
 
band   3 # energy    1.73790250 # occ.  2.00000000
 
ion      s      p      d    tot
  1  0.020  0.150  0.000  0.171
  2  0.020  0.150  0.000  0.171
tot  0.041  0.301  0.000  0.342
 
band   4 # energy    2.99808430 # occ.  2.00000000
 
ion      s      p      d    tot
  1  0.001  0.179  0.000  0.181
  2  0.001  0.179  0.000  0.181
tot  0.003  0.359  0.000  0.361
 
band   5 # energy    9.04170502 # occ.  0.00000000
 
ion      s      p      d    tot
  1  0.008  0.086  0.000  0.095
  2  0.008  0.086  0.000  0.095
tot  0.016  0.173  0.000  0.189
 
band   6 # energy    9.25151275 # occ.  0.00000000
 
ion      s      p      d    tot
  1  0.063  0.088  0.000  0.151
  2  0.063  0.088  0.000  0.151
tot  0.126  0.177  0.000  0.302
 
band   7 # energy   11.78403313 # occ.  0.00000000
 
ion      s      p      d    tot
  1  0.019  0.087  0.000  0.107
  2  0.019  0.087  0.000  0.107
tot  0.038  0.175  0.000  0.213
 
band   8 # energy   12.20603645 # occ.  0.00000000
 
ion      s      p      d    tot
  1  0.034  0.125  0.000  0.159
  2  0.034  0.124  0.000  0.158
tot  0.068  0.249  0.000  0.317
 

 k-point   16 :    0.48400000 0.00000000 0.48400000     weight = 0.00000000

band   1 # energy   -2.28273488 # occ.  2.00000000
 
ion      s      p      d    tot
  1  0.196  0.043  0.000  0.239
  2  0.196  0.043  0.000  0.239
tot  0.392  0.086  0.000  0.477
 
band   2 # energy   -1.78796929 # occ.  2.00000000
 
ion      s      p      d    tot
  1  0.194  0.048  0.000  0.242
  2  0.194  0.048  0.000  0.242
tot  0.387  0.097  0.000  0.484
 
band   3 # energy    2.92608020 # occ.  2.00000000
 
ion      s      p      d    tot
  1  0.000  0.199  0.000  0.199
  2  0.000  0.199  0.000  0.199
tot  0.000  0.398  0.000  0.398
 
band   4 # energy    2.92608022 # occ.  2.00000000
 
ion      s      p      d    tot
  1  0.000  0.199  0.000  0.199
  2  0.000  0.199  0.000  0.199
tot  0.000  0.398  0.000  0.398
 
band   5 # energy    6.32469729 # occ.  0.00000000
 
ion      s      p      d    tot
  1  0.053  0.036  0.000  0.089
  2  0.053  0.036  0.000  0.089
tot  0.106  0.072  0.000  0.179
 
band   6 # energy    6.43797725 # occ.  0.00000000
 
ion      s      p      d    tot
  1  0.052  0.034  0.000  0.086
  2  0.052  0.034  0.000  0.086
tot  0.104  0.067  0.000  0.171
 
band   7 # energy   15.65240976 # occ.  0.00000000
 
ion      s      p      d    tot
  1  0.000  0.225  0.000  0.225
  2  0.000  0.225  0.000  0.225
tot  0.000  0.450  0.000  0.450
 
band   8 # energy   15.65263374 # occ.  0.00000000
 
ion      s      p      d    tot
  1  0.000  0.225  0.000  0.225
  2  0.000  0.226  0.000  0.226
tot  0.000  0.450  0.000  0.450
 

 k-point   17 :    0.48400000 0.00248756 0.48400000     weight = 0.00000000

band   1 # energy   -2.30150390 # occ.  2.00000000
 
ion      s      p      d    tot
  1  0.196  0.043  0.000  0.239
  2  0.196  0.043  0.000  0.239
tot  0.392  0.085  0.000  0.477
 
band   2 # energy   -1.76830733 # occ.  2.00000000
 
ion      s      p      d    tot
  1  0.193  0.049  0.000  0.242
  2  0.193  0.049  0.000  0.242
tot  0.387  0.097  0.000  0.484
 
band   3 # energy    2.92634457 # occ.  2.00000000
 
ion      s      p      d    tot
  1  0.000  0.199  0.000  0.199
  2  0.000  0.199  0.000  0.199
tot  0.000  0.398  0.000  0.398
 
band   4 # energy    2.92677640 # occ.  2.00000000
 
ion      s      p      d    tot
  1  0.000  0.199  0.000  0.199
  2  0.000  0.199  0.000  0.199
tot  0.000  0.398  0.000  0.398
 
band   5 # energy    6.32158915 # occ.  0.00000000
 
ion      s      p      d    tot
  1  0.053  0.036  0.000  0.090
  2  0.053  0.036  0.000  0.090
tot  0.107  0.073  0.000  0.179
 
band   6 # energy    6.44367679 # occ.  0.00000000
 
ion      s      p      d    tot
  1  0.052  0.034  0.000  0.085
  2  0.052  0.034  0.000  0.085
tot  0.104  0.067  0.000  0.171
 
band   7 # energy   15.63753157 # occ.  0.00000000
 
ion      s      p      d    tot
  1  0.000  0.223  0.000  0.223
  2  0.000  0.223  0.000  0.223
tot  0.000  0.446  0.000  0.446
 
band   8 # energy   15.63870724 # occ.  0.00000000
 
ion      s      p      d    tot
  1  0.000  0.223  0.000  0.223
  2  0.000  0.224  0.000  0.224
tot  0.000  0.447  0.000  0.447
 

 k-point   18 :    0.48400000 0.00497512 0.48400000     weight = 0.00000000

band   1 # energy   -2.32019197 # occ.  2.00000000
 
ion      s      p      d    tot
  1  0.196  0.042  0.000  0.238
  2  0.196  0.042  0.000  0.238
tot  0.392  0.085  0.000  0.477
 
band   2 # energy   -1.74859010 # occ.  2.00000000
 
ion      s      p      d    tot
  1  0.193  0.049  0.000  0.242
  2  0.193  0.049  0.000  0.242
tot  0.387  0.098  0.000  0.484
 
band   3 # energy    2.92587657 # occ.  2.00000000
 
ion      s      p      d    tot
  1  0.000  0.199  0.000  0.199
  2  0.000  0.199  0.000  0.199
tot  0.000  0.398  0.000  0.398
 
band   4 # energy    2.92760845 # occ.  2.00000000
 
ion      s      p      d    tot
  1  0.000  0.199  0.000  0.199
  2  0.000  0.199  0.000  0.199
tot  0.000  0.398  0.000  0.398
 
band   5 # energy    6.31917947 # occ.  0.00000000
 
ion      s      p      d    tot
  1  0.053  0.036  0.000  0.090
  2  0.053  0.036  0.000  0.090
tot  0.107  0.073  0.000  0.180
 
band   6 # energy    6.45006205 # occ.  0.00000000
 
ion      s      p      d    tot
  1  0.052  0.034  0.000  0.085
  2  0.052  0.034  0.000  0.085
tot  0.103  0.067  0.000  0.171
 
band   7 # energy   15.62070784 # occ.  0.00000000
 
ion      s      p      d    tot
  1  0.000  0.220  0.000  0.220
  2  0.000  0.221  0.000  0.221
tot  0.000  0.441  0.000  0.441
 
band   8 # energy   15.62295808 # occ.  0.00000000
 
ion      s      p      d    tot
  1  0.000  0.219  0.000  0.219
  2  0.000  0.221  0.000  0.221
tot  0.000  0.441  0.000  0.441
 

 k-point   19 :    0.48400000 0.00746269 0.48400000     weight = 0.00000000

band   1 # energy   -2.33879710 # occ.  2.00000000
 
ion      s      p      d    tot
  1  0.196  0.042  0.000  0.238
  2  0.196  0.042  0.000  0.238
tot  0.392  0.084  0.000  0.477
 
band   2 # energy   -1.72881974 # occ.  2.00000000
 
ion      s      p      d    tot
  1  0.193  0.049  0.000  0.242
  2  0.193  0.049  0.000  0.242
tot  0.386  0.098  0.000  0.485
 
band   3 # energy    2.92468190 # occ.  2.00000000
 
ion      s      p      d    tot
  1  0.000  0.199  0.000  0.199
  2  0.000  0.199  0.000  0.199
tot  0.000  0.398  0.000  0.398
 
band   4 # energy    2.92857633 # occ.  2.00000000
 
ion      s      p      d    tot
  1  0.000  0.199  0.000  0.199
  2  0.000  0.199  0.000  0.199
tot  0.000  0.398  0.000  0.398
 
band   5 # energy    6.31745354 # occ.  0.00000000
 
ion      s      p      d    tot
  1  0.053  0.037  0.000  0.090
  2  0.053  0.037  0.000  0.090
tot  0.107  0.073  0.000  0.180
 
band   6 # energy    6.45714475 # occ.  0.00000000
 
ion      s      p      d    tot
  1  0.052  0.034  0.000  0.085
  2  0.052  0.034  0.000  0.085
tot  0.103  0.067  0.000  0.170
 
band   7 # energy   15.60236842 # occ.  0.00000000
 
ion      s      p      d    tot
  1  0.000  0.218  0.000  0.218
  2  0.000  0.218  0.000  0.218
tot  0.000  0.437  0.000  0.437
 
band   8 # energy   15.60407090 # occ.  0.00000000
 
ion      s      p      d    tot
  1  0.000  0.218  0.000  0.219
  2  0.000  0.219  0.000  0.219
tot  0.000  0.437  0.000  0.437
 

 k-point   20 :    0.48400000 0.00995025 0.48400000     weight = 0.00000000

band   1 # energy   -2.35731745 # occ.  2.00000000
 
ion      s      p      d    tot
  1  0.196  0.042  0.000  0.238
  2  0.196  0.042  0.000  0.238
tot  0.393  0.084  0.000  0.477
 
band   2 # energy   -1.70899897 # occ.  2.00000000
 
ion      s      p      d    tot
  1  0.193  0.049  0.000  0.242
  2  0.193  0.049  0.000  0.242
tot  0.386  0.099  0.000  0.485
 
band   3 # energy    2.92276606 # occ.  2.00000000
 
ion      s      p      d    tot
  1  0.000  0.199  0.000  0.199
  2  0.000  0.199  0.000  0.199