 running on   96 total cores
 distrk:  each k-point on   24 cores,    4 groups
 distr:  one band on    6 cores,    4 groups
 using from now: INCAR     
 vasp.5.4.1 24Jun15 (build Nov 25 2015 16:01:35) complex                        
  
 POSCAR found type information on POSCAR  Si
 POSCAR found :  1 types and       2 ions
 scaLAPACK will be used

 ----------------------------------------------------------------------------- 
|                                                                             |
|           W    W    AA    RRRRR   N    N  II  N    N   GGGG   !!!           |
|           W    W   A  A   R    R  NN   N  II  NN   N  G    G  !!!           |
|           W    W  A    A  R    R  N N  N  II  N N  N  G       !!!           |
|           W WW W  AAAAAA  RRRRR   N  N N  II  N  N N  G  GGG   !            |
|           WW  WW  A    A  R   R   N   NN  II  N   NN  G    G                |
|           W    W  A    A  R    R  N    N  II  N    N   GGGG   !!!           |
|                                                                             |
|      You have enabled k-point parallelism (KPAR>1).                         |
|      This developmental code was originally  written by Paul Kent at ORNL,  |
|      and carefully double checked in Vienna.                                |
|      GW as well as linear response parallelism added by Martijn Marsman     |
|      and Georg Kresse.                                                      |
|      Carefully verify results versus KPAR=1.                                |
|      Report problems to Paul Kent and Vienna.                               |
|                                                                             |
 ----------------------------------------------------------------------------- 

 LDA part: xc-table for Ceperly-Alder, standard interpolation
 POSCAR, INCAR and KPOINTS ok, starting setup
 WARNING: small aliasing (wrap around) errors must be expected
 FFT: planning ...
 WAVECAR not read
 charge-density read from file: Name                                    
 WARNING: random wavefunctions but no delay for mixing, default for NELMDL
 entering main loop
       N       E                     dE             d eps       ncg     rms          rms(c)
DAV:   1     0.648373404590E+01    0.64837E+01   -0.31604E+03  3456   0.746E+02
DAV:   2    -0.113668538350E+02   -0.17851E+02   -0.17704E+02  5192   0.817E+01
DAV:   3    -0.116028583132E+02   -0.23600E+00   -0.23600E+00  4704   0.121E+01
DAV:   4    -0.116040759734E+02   -0.12177E-02   -0.12177E-02  5224   0.100E+00
DAV:   5    -0.116040769937E+02   -0.10203E-05   -0.10203E-05  4696   0.249E-02
DAV:   6    -0.116040770019E+02   -0.82086E-08   -0.82086E-08  5160   0.149E-03
   1 F= -.11604077E+02 E0= -.11604077E+02  d E =-.116041E+02
 curvature:   0.00 expect dE= 0.000E+00 dE for cont linesearch  0.000E+00
 trial: gam= 0.00000 g(F)=  0.685E-50 g(S)=  0.227E-04 ort = 0.000E+00 (trialstep = 0.100E+01)
 search vector abs. value=  0.227E-04
 writing wavefunctions
Application 23156976 resources: utime ~522s, stime ~16s, Rss ~27288, inblocks ~552610, outblocks ~817630
