  96  96   0   0
  0.2080188E+02  0.1257760E-08  0.1245754E-08  0.1274818E-08  0.5000000E-15
  1.000000000000000E-004
  CAR 
 MAPbI3-Cubic                            
     10.60091644    -19.48950915  301      1.49856270      1.00000000
    -19.490  0.0000E+00  0.0000E+00
    -19.389  0.0000E+00  0.0000E+00
    -19.289  0.0000E+00  0.0000E+00
    -19.189  0.0000E+00  0.0000E+00
    -19.088  0.0000E+00  0.0000E+00
    -18.988  0.0000E+00  0.0000E+00
    -18.888  0.0000E+00  0.0000E+00
    -18.787  0.0000E+00  0.0000E+00
    -18.687  0.0000E+00  0.0000E+00
    -18.587  0.0000E+00  0.0000E+00
    -18.486  0.0000E+00  0.0000E+00
    -18.386  0.0000E+00  0.0000E+00
    -18.286  0.0000E+00  0.0000E+00
    -18.186  0.0000E+00  0.0000E+00
    -18.085  0.0000E+00  0.1600E+02
    -17.985  0.0000E+00  0.1600E+02
    -17.885  0.0000E+00  0.1600E+02
    -17.784  0.0000E+00  0.1600E+02
    -17.684  0.0000E+00  0.1600E+02
    -17.584  0.0000E+00  0.1600E+02
    -17.483  0.0000E+00  0.1600E+02
    -17.383  0.0000E+00  0.1600E+02
    -17.283  0.0000E+00  0.1600E+02
    -17.183  0.0000E+00  0.1600E+02
    -17.082  0.0000E+00  0.1600E+02
    -16.982  0.0000E+00  0.1600E+02
    -16.882  0.0000E+00  0.1600E+02
    -16.781  0.0000E+00  0.1600E+02
    -16.681  0.0000E+00  0.1600E+02
    -16.581  0.0000E+00  0.1600E+02
    -16.480  0.0000E+00  0.1600E+02
    -16.380  0.0000E+00  0.4800E+02
    -16.280  0.0000E+00  0.4800E+02
    -16.180  0.0000E+00  0.4800E+02
    -16.079  0.0000E+00  0.4800E+02
    -15.979  0.0000E+00  0.4800E+02
    -15.879  0.0000E+00  0.4800E+02
    -15.778  0.0000E+00  0.4800E+02
    -15.678  0.0000E+00  0.4800E+02
    -15.578  0.0000E+00  0.4800E+02
    -15.477  0.0000E+00  0.4800E+02
    -15.377  0.0000E+00  0.4800E+02
    -15.277  0.0000E+00  0.4800E+02
    -15.177  0.0000E+00  0.4800E+02
    -15.076  0.0000E+00  0.4800E+02
    -14.976  0.0000E+00  0.4800E+02
    -14.876  0.0000E+00  0.4800E+02
    -14.775  0.0000E+00  0.4800E+02
    -14.675  0.0000E+00  0.4800E+02
    -14.575  0.0000E+00  0.4800E+02
    -14.474  0.0000E+00  0.4800E+02
    -14.374  0.0000E+00  0.4800E+02
    -14.274  0.0000E+00  0.4800E+02
    -14.174  0.0000E+00  0.4800E+02
    -14.073  0.0000E+00  0.4800E+02
    -13.973  0.0000E+00  0.4800E+02
    -13.873  0.1154E-01  0.8000E+02
    -13.772  0.0000E+00  0.9600E+02
    -13.672  0.0000E+00  0.9600E+02
    -13.572  0.0000E+00  0.9600E+02
    -13.471  0.0000E+00  0.9600E+02
    -13.371  0.0000E+00  0.9600E+02
    -13.271  0.0000E+00  0.9600E+02
    -13.171  0.0000E+00  0.9600E+02
    -13.070  0.0000E+00  0.9600E+02
    -12.970  0.0000E+00  0.9600E+02
    -12.870  0.0000E+00  0.9600E+02
    -12.769  0.0000E+00  0.9600E+02
    -12.669  0.0000E+00  0.9600E+02
    -12.569  0.0000E+00  0.9600E+02
    -12.468  0.0000E+00  0.9600E+02
    -12.368  0.0000E+00  0.9600E+02
    -12.268  0.0000E+00  0.9600E+02
    -12.168  0.0000E+00  0.9600E+02
    -12.067  0.0000E+00  0.9600E+02
    -11.967  0.0000E+00  0.9600E+02
    -11.867  0.0000E+00  0.9600E+02
    -11.766  0.0000E+00  0.9600E+02
    -11.666  0.0000E+00  0.9600E+02
    -11.566  0.0000E+00  0.9600E+02
    -11.465  0.0000E+00  0.9600E+02
    -11.365  0.0000E+00  0.9600E+02
    -11.265  0.0000E+00  0.1040E+03
    -11.164  0.0000E+00  0.1120E+03
    -11.064  0.0000E+00  0.1120E+03
    -10.964  0.0000E+00  0.1120E+03
    -10.864  0.0000E+00  0.1120E+03
    -10.763  0.3485E-14  0.1125E+03
    -10.663  0.2542E+01  0.1153E+03
    -10.563  0.3065E+01  0.1220E+03
    -10.462  0.2110E-02  0.1280E+03
    -10.362  0.2807E+01  0.1321E+03
    -10.262  0.2075E+01  0.1395E+03
    -10.161  0.3838E+00  0.1426E+03
    -10.061  0.1206E+02  0.1485E+03
     -9.961  0.8255E+01  0.1575E+03
     -9.861  0.0000E+00  0.1600E+03
     -9.760  0.0000E+00  0.1600E+03
     -9.660  0.0000E+00  0.1600E+03
     -9.560  0.0000E+00  0.1600E+03
     -9.459  0.0000E+00  0.1600E+03
     -9.359  0.0000E+00  0.1600E+03
     -9.259  0.0000E+00  0.1600E+03
     -9.158  0.0000E+00  0.1600E+03
     -9.058  0.0000E+00  0.1600E+03
     -8.958  0.0000E+00  0.1600E+03
     -8.858  0.0000E+00  0.1600E+03
     -8.757  0.0000E+00  0.1600E+03
     -8.657  0.0000E+00  0.1600E+03
     -8.557  0.0000E+00  0.1600E+03
     -8.456  0.0000E+00  0.1600E+03
     -8.356  0.0000E+00  0.1600E+03
     -8.256  0.0000E+00  0.1600E+03
     -8.155  0.0000E+00  0.1600E+03
     -8.055  0.0000E+00  0.1600E+03
     -7.955  0.0000E+00  0.1600E+03
     -7.855  0.0000E+00  0.1600E+03
     -7.754  0.0000E+00  0.1600E+03
     -7.654  0.1322E+02  0.1613E+03
     -7.554  0.5123E+02  0.1823E+03
     -7.453  0.2697E-07  0.1907E+03
     -7.353  0.0000E+00  0.1920E+03
     -7.253  0.0000E+00  0.1920E+03
     -7.152  0.0000E+00  0.1920E+03
     -7.052  0.0000E+00  0.1920E+03
     -6.952  0.0000E+00  0.1920E+03
     -6.852  0.0000E+00  0.1921E+03
     -6.751  0.0000E+00  0.1925E+03
     -6.651  0.0000E+00  0.1934E+03
     -6.551  0.1807E+01  0.1942E+03
     -6.450  0.3059E+00  0.1945E+03
     -6.350  0.1199E-06  0.1964E+03
     -6.250  0.2536E+01  0.1991E+03
     -6.149  0.1477E+01  0.2007E+03
     -6.049  0.5882E+01  0.2028E+03
     -5.949  0.1477E+01  0.2041E+03
     -5.849  0.1477E+01  0.2061E+03
     -5.748  0.3593E-06  0.2133E+03
     -5.648  0.6320E+01  0.2223E+03
     -5.548  0.0000E+00  0.2235E+03
     -5.447  0.0000E+00  0.2239E+03
     -5.347  0.6508E-11  0.2239E+03
     -5.247  0.0000E+00  0.2240E+03
     -5.146  0.0000E+00  0.2240E+03
     -5.046  0.0000E+00  0.2240E+03
     -4.946  0.0000E+00  0.2240E+03
     -4.846  0.0000E+00  0.2240E+03
     -4.745  0.0000E+00  0.2240E+03
     -4.645  0.0000E+00  0.2240E+03
     -4.545  0.0000E+00  0.2240E+03
     -4.444  0.0000E+00  0.2240E+03
     -4.344  0.0000E+00  0.2240E+03
     -4.244  0.0000E+00  0.2240E+03
     -4.143  0.0000E+00  0.2240E+03
     -4.043  0.0000E+00  0.2240E+03
     -3.943  0.0000E+00  0.2240E+03
     -3.842  0.0000E+00  0.2240E+03
     -3.742  0.0000E+00  0.2240E+03
     -3.642  0.0000E+00  0.2240E+03
     -3.542  0.1859E+02  0.2334E+03
     -3.441  0.6580E+01  0.2560E+03
     -3.341  0.0000E+00  0.2560E+03
     -3.241  0.0000E+00  0.2560E+03
     -3.140  0.0000E+00  0.2560E+03
     -3.040  0.0000E+00  0.2560E+03
     -2.940  0.0000E+00  0.2560E+03
     -2.839  0.0000E+00  0.2560E+03
     -2.739  0.0000E+00  0.2560E+03
     -2.639  0.0000E+00  0.2560E+03
     -2.539  0.0000E+00  0.2560E+03
     -2.438  0.0000E+00  0.2560E+03
     -2.338  0.0000E+00  0.2560E+03
     -2.238  0.0000E+00  0.2560E+03
     -2.137  0.1477E+01  0.2570E+03
     -2.037  0.4429E+01  0.2597E+03
     -1.937  0.1477E+01  0.2622E+03
     -1.836  0.2045E+01  0.2650E+03
     -1.736  0.3872E+01  0.2685E+03
     -1.636  0.1477E+01  0.2727E+03
     -1.536  0.3661E+01  0.2758E+03
     -1.435  0.2048E+01  0.2790E+03
     -1.335  0.1998E+01  0.2800E+03
     -1.235  0.3438E+01  0.2812E+03
     -1.134  0.7385E+00  0.2850E+03
     -1.034  0.8016E+01  0.2879E+03
     -0.934  0.3844E+01  0.2933E+03
     -0.833  0.3330E+01  0.2977E+03
     -0.733  0.5821E-14  0.3010E+03
     -0.633  0.4446E+01  0.3033E+03
     -0.533  0.2538E+01  0.3086E+03
     -0.432  0.1485E+01  0.3140E+03
     -0.332  0.8257E+00  0.3190E+03
     -0.232  0.5523E+01  0.3232E+03
     -0.131  0.1026E+02  0.3296E+03
     -0.031  0.5456E+01  0.3371E+03
      0.069  0.6842E+01  0.3463E+03
      0.170  0.6949E+01  0.3520E+03
      0.270  0.5201E+01  0.3558E+03
      0.370  0.5282E+01  0.3608E+03
      0.470  0.3891E+01  0.3662E+03
      0.571  0.7908E+01  0.3733E+03
      0.671  0.6185E+01  0.3794E+03
      0.771  0.7869E+01  0.3874E+03
      0.872  0.4837E+01  0.3930E+03
      0.972  0.9637E+00  0.3962E+03
      1.072  0.6653E-01  0.3979E+03
      1.173  0.0000E+00  0.3992E+03
      1.273  0.7487E+00  0.3996E+03
      1.373  0.0000E+00  0.3999E+03
      1.473  0.0000E+00  0.4000E+03
      1.574  0.0000E+00  0.4000E+03
      1.674  0.0000E+00  0.4000E+03
      1.774  0.0000E+00  0.4000E+03
      1.875  0.0000E+00  0.4000E+03
      1.975  0.0000E+00  0.4000E+03
      2.075  0.0000E+00  0.4000E+03
      2.176  0.0000E+00  0.4001E+03
      2.276  0.0000E+00  0.4001E+03
      2.376  0.0000E+00  0.4002E+03
      2.477  0.0000E+00  0.4003E+03
      2.577  0.0000E+00  0.4005E+03
      2.677  0.0000E+00  0.4010E+03
      2.777  0.7385E+00  0.4014E+03
      2.878  0.7385E+00  0.4020E+03
      2.978  0.1125E+01  0.4023E+03
      3.078  0.8172E-01  0.4030E+03
      3.179  0.2215E+01  0.4043E+03
      3.279  0.1170E-13  0.4048E+03
      3.379  0.7390E+00  0.4060E+03
      3.480  0.3933E+01  0.4073E+03
      3.580  0.4946E-05  0.4085E+03
      3.680  0.4100E-16  0.4092E+03
      3.780  0.6409E+00  0.4100E+03
      3.881  0.7385E+00  0.4116E+03
      3.981  0.0000E+00  0.4128E+03
      4.081  0.2954E+01  0.4141E+03
      4.182  0.2181E+01  0.4157E+03
      4.282  0.3659E+01  0.4176E+03
      4.382  0.2216E+01  0.4195E+03
      4.483  0.0000E+00  0.4205E+03
      4.583  0.1477E+01  0.4219E+03
      4.683  0.0000E+00  0.4227E+03
      4.783  0.1477E+01  0.4239E+03
      4.884  0.1477E+01  0.4245E+03
      4.984  0.0000E+00  0.4250E+03
      5.084  0.1477E+01  0.4258E+03
      5.185  0.4175E+01  0.4270E+03
      5.285  0.1477E+01  0.4279E+03
      5.385  0.2670E+01  0.4303E+03
      5.486  0.1513E+01  0.4336E+03
      5.586  0.4431E+01  0.4364E+03
      5.686  0.0000E+00  0.4390E+03
      5.786  0.8002E-11  0.4408E+03
      5.887  0.1687E+01  0.4432E+03
      5.987  0.7732E+00  0.4459E+03
      6.087  0.8347E+01  0.4507E+03
      6.188  0.4431E+01  0.4548E+03
      6.288  0.4863E+01  0.4590E+03
      6.388  0.5030E+01  0.4627E+03
      6.489  0.4430E+01  0.4670E+03
      6.589  0.3355E+01  0.4719E+03
      6.689  0.2086E+01  0.4764E+03
      6.789  0.6550E-01  0.4805E+03
      6.890  0.3693E+01  0.4847E+03
      6.990  0.2949E+01  0.4880E+03
      7.090  0.5111E+01  0.4926E+03
      7.191  0.4431E+01  0.4979E+03
      7.291  0.5042E+01  0.5012E+03
      7.391  0.3239E+01  0.5072E+03
      7.492  0.1559E+01  0.5119E+03
      7.592  0.2945E+01  0.5170E+03
      7.692  0.1978E+01  0.5226E+03
      7.792  0.2771E+01  0.5268E+03
      7.893  0.7669E+01  0.5328E+03
      7.993  0.3686E+01  0.5381E+03
      8.093  0.2954E+01  0.5423E+03
      8.194  0.2912E+01  0.5475E+03
      8.294  0.6266E+01  0.5537E+03
      8.394  0.2841E+01  0.5587E+03
      8.495  0.4247E+01  0.5656E+03
      8.595  0.2128E+01  0.5705E+03
      8.695  0.2611E-06  0.5761E+03
      8.795  0.6652E+01  0.5816E+03
      8.896  0.3496E+01  0.5880E+03
      8.996  0.1921E+01  0.5927E+03
      9.096  0.2217E+01  0.5968E+03
      9.197  0.1456E+01  0.5994E+03
      9.297  0.0000E+00  0.6000E+03
      9.397  0.0000E+00  0.6000E+03
      9.498  0.0000E+00  0.6000E+03
      9.598  0.0000E+00  0.6000E+03
      9.698  0.0000E+00  0.6000E+03
      9.799  0.0000E+00  0.6000E+03
      9.899  0.0000E+00  0.6000E+03
      9.999  0.0000E+00  0.6000E+03
     10.099  0.0000E+00  0.6000E+03
     10.200  0.0000E+00  0.6000E+03
     10.300  0.0000E+00  0.6000E+03
     10.400  0.0000E+00  0.6000E+03
     10.501  0.0000E+00  0.6000E+03
     10.601  0.0000E+00  0.6000E+03
