       N       E                     dE             d eps       ncg     rms          rms(c)
DAV:   1     0.421698771617E+04    0.42170E+04   -0.19279E+05 32544   0.146E+03
DAV:   2     0.840532840050E+03   -0.33765E+04   -0.31266E+04 35616   0.321E+02
DAV:   3     0.232348861440E+03   -0.60818E+03   -0.58812E+03 44016   0.156E+02
DAV:   4     0.186807137722E+03   -0.45542E+02   -0.44502E+02 44288   0.438E+01
DAV:   5     0.184707894421E+03   -0.20992E+01   -0.20886E+01 50104   0.977E+00    0.971E+01
DAV:   6     0.534997515641E+02   -0.13121E+03   -0.15109E+03 37160   0.505E+01    0.481E+01
DAV:   7    -0.943480391894E+02   -0.14785E+03   -0.16083E+02 38696   0.219E+01    0.283E+01
DAV:   8    -0.202422582285E+03   -0.10807E+03   -0.65312E+01 37568   0.132E+01    0.183E+01
DAV:   9    -0.332108497334E+03   -0.12969E+03   -0.11854E+02 36360   0.161E+01    0.922E+00
DAV:  10    -0.381850166019E+03   -0.49742E+02   -0.51560E+01 37712   0.105E+01    0.672E+00
DAV:  11    -0.410027747226E+03   -0.28178E+02   -0.38661E+01 38424   0.823E+00    0.384E+00
DAV:  12    -0.420765727516E+03   -0.10738E+02   -0.16073E+01 39720   0.548E+00    0.251E+00
DAV:  13    -0.422726721772E+03   -0.19610E+01   -0.28422E+00 40576   0.262E+00    0.207E+00
DAV:  14    -0.423338163924E+03   -0.61144E+00   -0.85507E-01 39136   0.135E+00    0.119E+00
DAV:  15    -0.423448363210E+03   -0.11020E+00   -0.24014E-01 40000   0.772E-01    0.665E-01
DAV:  16    -0.423457502911E+03   -0.91397E-02   -0.34702E-02 43152   0.347E-01    0.431E-01
DAV:  17    -0.423461015778E+03   -0.35129E-02   -0.97005E-03 39264   0.167E-01    0.236E-01
DAV:  18    -0.423462936550E+03   -0.19208E-02   -0.27624E-03 39848   0.916E-02    0.817E-02
DAV:  19    -0.423463492694E+03   -0.55614E-03   -0.71985E-04 40240   0.534E-02    0.457E-02
DAV:  20    -0.423463794682E+03   -0.30199E-03   -0.22128E-04 38312   0.283E-02    0.246E-02
DAV:  21    -0.423463972345E+03   -0.17766E-03   -0.15976E-04 37048   0.201E-02    0.165E-02
DAV:  22    -0.423463989386E+03   -0.17041E-04   -0.21853E-05 43072   0.894E-03    0.104E-02
DAV:  23    -0.423463992908E+03   -0.35212E-05   -0.86980E-06 38296   0.435E-03    0.434E-03
DAV:  24    -0.423463996580E+03   -0.36725E-05   -0.34458E-06 37712   0.325E-03    0.207E-03
DAV:  25    -0.423463996751E+03   -0.17066E-06   -0.82964E-07 39312   0.154E-03    0.107E-03
DAV:  26    -0.423463996773E+03   -0.21904E-07   -0.14649E-07 41472   0.705E-04    0.909E-04
DAV:  27    -0.423463996714E+03    0.58884E-07   -0.27306E-08 36920   0.318E-04    0.383E-04
DAV:  28    -0.423463996648E+03    0.65862E-07   -0.20669E-08 30864   0.255E-04    0.216E-04
DAV:  29    -0.423463996630E+03    0.18390E-07   -0.39224E-09 28000   0.140E-04    0.137E-04
DAV:  30    -0.423463996639E+03   -0.89931E-08   -0.15050E-09 27304   0.128E-04
   1 F= -.42346400E+03 E0= -.42346400E+03  d E =0.000000E+00  mag=     0.0000     0.0000     0.0000
