 vasp.5.4.1 24Jun15 (build Nov 25 2015 16:39:35) complex                        
  
 executed on         CrayXC-Intel date 2016.06.22  00:47:58
 running on  192 total cores
 distrk:  each k-point on  192 cores,    1 groups
 distr:  one band on NCORES_PER_BAND=  24 cores,    8 groups


--------------------------------------------------------------------------------------------------------


 INCAR:
 POTCAR:    PAW_PBE C 08Apr2002                   
 POTCAR:    PAW_PBE N 08Apr2002                   
 POTCAR:    PAW_PBE H 15Jun2001                   
 POTCAR:    PAW_PBE Pb_d 06Sep2000                
 POTCAR:    PAW_PBE I 08Apr2002                   
 POTCAR:    PAW_PBE C 08Apr2002                   
   VRHFIN =C: s2p2                                                              
   LEXCH  = PE                                                                  
   EATOM  =   147.1560 eV,   10.8157 Ry                                         
                                                                                
   TITEL  = PAW_PBE C 08Apr2002                                                 
   LULTRA =        F    use ultrasoft PP ?                                      
   IUNSCR =        1    unscreen: 0-lin 1-nonlin 2-no                           
   RPACOR =    1.200    partial core radius                                     
   POMASS =   12.011; ZVAL   =    4.000    mass and valenz                      
   RCORE  =    1.500    outmost cutoff radius                                   
   RWIGS  =    1.630; RWIGS  =    0.863    wigner-seitz radius (au A)           
   ENMAX  =  400.000; ENMIN  =  300.000 eV                                      
   ICORE  =        2    local potential                                         
   LCOR   =        T    correct aug charges                                     
   LPAW   =        T    paw PP                                                  
   EAUG   =  644.873                                                            
   DEXC   =    0.000                                                            
   RMAX   =    1.529    core radius for proj-oper                               
   RAUG   =    1.300    factor for augmentation sphere                          
   RDEP   =    1.501    radius for radial grids                                 
   RDEPT  =    1.300    core radius for aug-charge                              
                                                                                
   Atomic configuration                                                         
    4 entries                                                                   
     n  l   j            E        occ.                                          
     1  0  0.50      -273.3789   2.0000                                         
     2  0  0.50       -13.7508   2.0000                                         
     2  1  0.50        -5.2854   2.0000                                         
     3  2  1.50        -5.4423   0.0000                                         
   Description                                                                  
     l       E           TYP  RCUT    TYP  RCUT                                 
     0    -13.7508458     23  1.200                                             
     0     -8.2022199     23  1.200                                             
     1     -5.2854383     23  1.500                                             
     1     34.0145650     23  1.500                                             
     2     -5.4423304      7  1.500                                             
  local pseudopotential read in
  partial core-charges read in
  partial kinetic energy density read in
  atomic valenz-charges read in
  non local Contribution for L=           0  read in
    real space projection operators read in
  non local Contribution for L=           0  read in
    real space projection operators read in
  non local Contribution for L=           1  read in
    real space projection operators read in
  non local Contribution for L=           1  read in
    real space projection operators read in
    PAW grid and wavefunctions read in
 
   number of l-projection  operators is LMAX  =           4
   number of lm-projection operators is LMMAX =           8
 
 POTCAR:    PAW_PBE N 08Apr2002                   
   VRHFIN =N: s2p3                                                              
   LEXCH  = PE                                                                  
   EATOM  =   264.5486 eV,   19.4438 Ry                                         
                                                                                
   TITEL  = PAW_PBE N 08Apr2002                                                 
   LULTRA =        F    use ultrasoft PP ?                                      
   IUNSCR =        1    unscreen: 0-lin 1-nonlin 2-no                           
   RPACOR =    1.200    partial core radius                                     
   POMASS =   14.001; ZVAL   =    5.000    mass and valenz                      
   RCORE  =    1.500    outmost cutoff radius                                   
   RWIGS  =    1.400; RWIGS  =    0.741    wigner-seitz radius (au A)           
   ENMAX  =  400.000; ENMIN  =  300.000 eV                                      
   ICORE  =        2    local potential                                         
   LCOR   =        T    correct aug charges                                     
   LPAW   =        T    paw PP                                                  
   EAUG   =  627.112                                                            
   DEXC   =    0.000                                                            
   RMAX   =    1.529    core radius for proj-oper                               
   RAUG   =    1.300    factor for augmentation sphere                          
   RDEP   =    1.514    radius for radial grids                                 
   RDEPT  =    1.338    core radius for aug-charge                              
                                                                                
   Atomic configuration                                                         
    4 entries                                                                   
     n  l   j            E        occ.                                          
     1  0  0.50      -384.7179   2.0000                                         
     2  0  0.50       -18.5828   2.0000                                         
     2  1  0.50        -7.0898   3.0000                                         
     3  2  1.50        -6.8029   0.0000                                         
   Description                                                                  
     l       E           TYP  RCUT    TYP  RCUT                                 
     0    -18.5828119     23  1.200                                             
     0    -13.5018863     23  1.200                                             
     1     -7.0897853     23  1.500                                             
     1      9.5240782     23  1.500                                             
     2     -6.8029130      7  1.500                                             
  local pseudopotential read in
  partial core-charges read in
  partial kinetic energy density read in
  atomic valenz-charges read in
  non local Contribution for L=           0  read in
    real space projection operators read in
  non local Contribution for L=           0  read in
    real space projection operators read in
  non local Contribution for L=           1  read in
    real space projection operators read in
  non local Contribution for L=           1  read in
    real space projection operators read in
    PAW grid and wavefunctions read in
 
   number of l-projection  operators is LMAX  =           4
   number of lm-projection operators is LMMAX =           8
 
 POTCAR:    PAW_PBE H 15Jun2001                   
   VRHFIN =H: ultrasoft test                                                    
   LEXCH  = PE                                                                  
   EATOM  =    12.4884 eV,    0.9179 Ry                                         
                                                                                
   TITEL  = PAW_PBE H 15Jun2001                                                 
   LULTRA =        F    use ultrasoft PP ?                                      
   IUNSCR =        0    unscreen: 0-lin 1-nonlin 2-no                           
   RPACOR =    0.000    partial core radius                                     
   POMASS =    1.000; ZVAL   =    1.000    mass and valenz                      
   RCORE  =    1.100    outmost cutoff radius                                   
   RWIGS  =    0.700; RWIGS  =    0.370    wigner-seitz radius (au A)           
   ENMAX  =  250.000; ENMIN  =  200.000 eV                                      
   RCLOC  =    0.701    cutoff for local pot                                    
   LCOR   =        T    correct aug charges                                     
   LPAW   =        T    paw PP                                                  
   EAUG   =  400.000                                                            
   RMAX   =    1.123    core radius for proj-oper                               
   RAUG   =    1.200    factor for augmentation sphere                          
   RDEP   =    1.112    radius for radial grids                                 
   RDEPT  =    0.926    core radius for aug-charge                              
                                                                                
   Atomic configuration                                                         
    2 entries                                                                   
     n  l   j            E        occ.                                          
     1  0  0.50        -6.4927   1.0000                                         
     2  1  0.50        -3.4015   0.0000                                         
   Description                                                                  
     l       E           TYP  RCUT    TYP  RCUT                                 
     0     -6.4927494     23  1.100                                             
     0      6.8029130     23  1.100                                             
     1     -4.0817478     23  1.100                                             
  local pseudopotential read in
  atomic valenz-charges read in
  non local Contribution for L=           0  read in
    real space projection operators read in
  non local Contribution for L=           0  read in
    real space projection operators read in
  non local Contribution for L=           1  read in
    real space projection operators read in
    PAW grid and wavefunctions read in
 
   number of l-projection  operators is LMAX  =           3
   number of lm-projection operators is LMMAX =           5
 
 POTCAR:    PAW_PBE Pb_d 06Sep2000                
   VRHFIN =Pb:                                                                  
   LEXCH  = PE                                                                  
   EATOM  =  1661.6185 eV,  122.1255 Ry                                         
                                                                                
   TITEL  = PAW_PBE Pb_d 06Sep2000                                              
   LULTRA =        F    use ultrasoft PP ?                                      
   IUNSCR =        1    unscreen: 0-lin 1-nonlin 2-no                           
   RPACOR =    2.200    partial core radius                                     
   POMASS =  207.200; ZVAL   =   14.000    mass and valenz                      
   RCORE  =    2.500    outmost cutoff radius                                   
   RWIGS  =    3.260; RWIGS  =    1.725    wigner-seitz radius (au A)           
   ENMAX  =  237.835; ENMIN  =  178.376 eV                                      
   ICORE  =        3    local potential                                         
   LCOR   =        T    correct aug charges                                     
   LPAW   =        T    paw PP                                                  
   EAUG   =  391.914                                                            
   DEXC   =    0.000                                                            
   RMAX   =    2.565    core radius for proj-oper                               
   RAUG   =    1.300    factor for augmentation sphere                          
   RDEP   =    2.643    radius for radial grids                                 
   RDEPT  =    2.092    core radius for aug-charge                              
                                                                                
   Atomic configuration                                                         
   16 entries                                                                   
     n  l   j            E        occ.                                          
     1  0  0.50    -88091.8466   2.0000                                         
     2  0  0.50    -15753.4197   2.0000                                         
     2  1  1.50    -13508.1797   6.0000                                         
     3  0  0.50     -3781.7194   2.0000                                         
     3  1  1.50     -3138.2529   6.0000                                         
     3  2  2.50     -2483.2977  10.0000                                         
     4  0  0.50      -856.2895   2.0000                                         
     4  1  1.50      -645.4942   6.0000                                         
     4  2  2.50      -401.8768  10.0000                                         
     4  3  3.50      -132.9059  14.0000                                         
     5  0  0.50      -144.0950   2.0000                                         
     5  1  1.50       -85.7879   6.0000                                         
     5  2  2.50       -21.1769  10.0000                                         
     6  0  0.50       -12.0372   2.0000                                         
     6  1  1.50        -3.4971   2.0000                                         
     5  3  2.50        -2.7212   0.0000                                         
   Description                                                                  
     l       E           TYP  RCUT    TYP  RCUT                                 
     2    -21.1768523     23  2.500                                             
     2      1.3605826     23  2.500                                             
     0    -12.0371562     23  2.500                                             
     0     13.6058260     23  2.500                                             
     1     -3.4971339     23  2.500                                             
     1     13.6058260     23  2.500                                             
     3     -1.3605826      7  2.500                                             
  local pseudopotential read in
  partial core-charges read in
  partial kinetic energy density read in
  atomic valenz-charges read in
  non local Contribution for L=           2  read in
    real space projection operators read in
  non local Contribution for L=           2  read in
    real space projection operators read in
  non local Contribution for L=           0  read in
    real space projection operators read in
  non local Contribution for L=           0  read in
    real space projection operators read in
  non local Contribution for L=           1  read in
    real space projection operators read in
  non local Contribution for L=           1  read in
    real space projection operators read in
    PAW grid and wavefunctions read in
 
   number of l-projection  operators is LMAX  =           6
   number of lm-projection operators is LMMAX =          18
 
 POTCAR:    PAW_PBE I 08Apr2002                   
   VRHFIN =I : s2p5                                                             
   LEXCH  = PE                                                                  
   EATOM  =   315.8678 eV,   23.2156 Ry                                         
                                                                                
   TITEL  = PAW_PBE I 08Apr2002                                                 
   LULTRA =        F    use ultrasoft PP ?                                      
   IUNSCR =        1    unscreen: 0-lin 1-nonlin 2-no                           
   RPACOR =    2.200    partial core radius                                     
   POMASS =  126.904; ZVAL   =    7.000    mass and valenz                      
   RCORE  =    2.300    outmost cutoff radius                                   
   RWIGS  =    2.810; RWIGS  =    1.487    wigner-seitz radius (au A)           
   ENMAX  =  175.647; ENMIN  =  131.735 eV                                      
   ICORE  =        3    local potential                                         
   LCOR   =        T    correct aug charges                                     
   LPAW   =        T    paw PP                                                  
   EAUG   =  370.139                                                            
   DEXC   =    0.000                                                            
   RMAX   =    2.359    core radius for proj-oper                               
   RAUG   =    1.300    factor for augmentation sphere                          
   RDEP   =    2.392    radius for radial grids                                 
   RDEPT  =    2.170    core radius for aug-charge                              
                                                                                
   Atomic configuration                                                         
   13 entries                                                                   
     n  l   j            E        occ.                                          
     1  0  0.50    -32976.3739   2.0000                                         
     2  0  0.50     -5094.5933   2.0000                                         
     2  1  1.50     -4572.0131   6.0000                                         
     3  0  0.50     -1028.2813   2.0000                                         
     3  1  1.50      -859.0250   6.0000                                         
     3  2  2.50      -605.7620  10.0000                                         
     4  0  0.50      -180.5540   2.0000                                         
     4  1  1.50      -127.5306   6.0000                                         
     4  2  2.50       -50.2720  10.0000                                         
     5  0  0.50       -17.4058   2.0000                                         
     5  1  0.50        -7.0851   5.0000                                         
     5  2  1.50        -7.0750   0.0000                                         
     4  3  2.50        -7.0750   0.0000                                         
   Description                                                                  
     l       E           TYP  RCUT    TYP  RCUT                                 
     0    -17.4058016     23  2.300                                             
     0    -18.7663842     23  2.300                                             
     1     -7.0850686     23  2.300                                             
     1     -4.2150896     23  2.300                                             
     2     -7.0750295     23  2.300                                             
     3     -1.3605826     23  2.300                                             
  local pseudopotential read in
  partial core-charges read in
  partial kinetic energy density read in
  atomic valenz-charges read in
  non local Contribution for L=           0  read in
    real space projection operators read in
  non local Contribution for L=           0  read in
    real space projection operators read in
  non local Contribution for L=           1  read in
    real space projection operators read in
  non local Contribution for L=           1  read in
    real space projection operators read in
  non local Contribution for L=           2  read in
    real space projection operators read in
    PAW grid and wavefunctions read in
 
   number of l-projection  operators is LMAX  =           5
   number of lm-projection operators is LMMAX =          13
 

 ----------------------------------------------------------------------------- 
|                                                                             |
|  ADVICE TO THIS USER RUNNING 'VASP/VAMP'   (HEAR YOUR MASTER'S VOICE ...):  |
|                                                                             |
|      You have a (more or less) 'large supercell' and for larger cells       |
|      it might be more efficient to use real space projection opertators     |
|      So try LREAL= Auto  in the INCAR   file.                               |
|      Mind: At the moment your POTCAR file does not contain real space       |
|       projectors, and has to be modified,  BUT if you                       |
|      want to do an extremely  accurate calculation you might also keep the  |
|      reciprocal projection scheme          (i.e. LREAL=.FALSE.)             |
|                                                                             |
 ----------------------------------------------------------------------------- 


 ----------------------------------------------------------------------------- 
|                                                                             |
|  ADVICE TO THIS USER RUNNING 'VASP/VAMP'   (HEAR YOUR MASTER'S VOICE ...):  |
|                                                                             |
|      You enforced a specific xc-type in the INCAR file,                     |
|      a different type was found on the POTCAR file                          |
|          I HOPE YOU KNOW, WHAT YOU ARE  DOING                               |
|                                                                             |
 ----------------------------------------------------------------------------- 

  PAW_PBE C 08Apr2002                   :
 energy of atom  1       EATOM= -147.1560
 kinetic energy error for atom=    0.0032 (will be added to EATOM!!)
  PAW_PBE N 08Apr2002                   :
 energy of atom  2       EATOM= -264.5486
 kinetic energy error for atom=    0.0061 (will be added to EATOM!!)
  PAW_PBE H 15Jun2001                   :
 energy of atom  3       EATOM=  -12.4884
 kinetic energy error for atom=    0.0002 (will be added to EATOM!!)
  PAW_PBE Pb_d 06Sep2000                :
 energy of atom  4       EATOM=-1661.6185
 kinetic energy error for atom=    0.0012 (will be added to EATOM!!)
  PAW_PBE I 08Apr2002                   :
 energy of atom  5       EATOM= -315.8678
 kinetic energy error for atom=    0.0003 (will be added to EATOM!!)
 
 
 POSCAR: C N H Pb I                              
  positions in direct lattice
  No initial velocities read in
 exchange correlation table for  LEXCH =       14
   RHO(1)=    0.500       N(1)  =     2000
   RHO(2)=  100.500       N(2)  =     4000
 


--------------------------------------------------------------------------------------------------------


 ion  position               nearest neighbor table
   1  0.207  0.250  0.214-  33 1.10  25 1.10  17 1.11   9 1.50
   2  0.687  0.250  0.244-  34 1.10  26 1.10  18 1.11  10 1.50
   3  0.187  0.750  0.244-  35 1.10  27 1.10  19 1.11  11 1.50
   4  0.707  0.750  0.214-  36 1.10  28 1.10  20 1.11  12 1.50
   5  0.207  0.250  0.714-  37 1.10  29 1.10  21 1.11  13 1.50
   6  0.687  0.250  0.744-  38 1.10  30 1.10  22 1.11  14 1.50
   7  0.187  0.750  0.744-  39 1.10  31 1.10  23 1.11  15 1.50
   8  0.707  0.750  0.714-  40 1.10  32 1.10  24 1.11  16 1.50
   9  0.307  0.250  0.275-  57 1.05  41 1.05  49 1.05   1 1.50
  10  0.802  0.250  0.273-  42 1.05  50 1.05  58 1.06   2 1.50
  11  0.302  0.750  0.273-  43 1.05  51 1.05  59 1.06   3 1.50
  12  0.807  0.750  0.275-  60 1.05  44 1.05  52 1.05   4 1.50
  13  0.307  0.250  0.775-  61 1.05  45 1.05  53 1.05   5 1.50
  14  0.802  0.250  0.773-  46 1.05  54 1.05  62 1.06   6 1.50
  15  0.302  0.750  0.773-  47 1.05  55 1.05  63 1.06   7 1.50
  16  0.807  0.750  0.775-  64 1.05  48 1.05  56 1.05   8 1.50
  17  0.228  0.250  0.129-   1 1.11
  18  0.683  0.250  0.157-   2 1.11
  19  0.183  0.750  0.157-   3 1.11
  20  0.728  0.750  0.129-   4 1.11
  21  0.228  0.250  0.629-   5 1.11
  22  0.683  0.250  0.657-   6 1.11
  23  0.183  0.750  0.657-   7 1.11
  24  0.728  0.750  0.629-   8 1.11
  25  0.160  0.323  0.235-   1 1.10
  26  0.648  0.322  0.276-   2 1.10
  27  0.148  0.822  0.276-   3 1.10
  28  0.660  0.823  0.235-   4 1.10
  29  0.160  0.323  0.735-   5 1.10
  30  0.648  0.322  0.776-   6 1.10
  31  0.148  0.822  0.776-   7 1.10
  32  0.660  0.823  0.735-   8 1.10
  33  0.160  0.177  0.235-   1 1.10
  34  0.649  0.177  0.276-   2 1.10
  35  0.149  0.677  0.276-   3 1.10
  36  0.660  0.677  0.235-   4 1.10
  37  0.160  0.177  0.735-   5 1.10
  38  0.649  0.177  0.776-   6 1.10
  39  0.149  0.677  0.776-   7 1.10
  40  0.660  0.677  0.735-   8 1.10
  41  0.354  0.318  0.258-   9 1.05
  42  0.842  0.318  0.244-  10 1.05
  43  0.342  0.818  0.244-  11 1.05
  44  0.854  0.818  0.258-  12 1.05
  45  0.354  0.318  0.758-  13 1.05
  46  0.842  0.318  0.744-  14 1.05
  47  0.342  0.818  0.744-  15 1.05
  48  0.854  0.818  0.758-  16 1.05
  49  0.354  0.182  0.258-   9 1.05
  50  0.843  0.182  0.244-  10 1.05
  51  0.343  0.682  0.244-  11 1.05
  52  0.854  0.682  0.258-  12 1.05
  53  0.354  0.182  0.758-  13 1.05
  54  0.843  0.182  0.744-  14 1.05
  55  0.343  0.682  0.744-  15 1.05
  56  0.854  0.682  0.758-  16 1.05
  57  0.292  0.250  0.356-   9 1.05
  58  0.814  0.250  0.355-  10 1.06
  59  0.314  0.750  0.355-  11 1.06
  60  0.792  0.750  0.356-  12 1.05
  61  0.292  0.250  0.856-  13 1.05
  62  0.814  0.250  0.855-  14 1.06
  63  0.314  0.750  0.855-  15 1.06
  64  0.792  0.750  0.856-  16 1.05
  65  0.472  0.502  0.489-  90 3.11  85 3.14  77 3.17  87 3.18  73 3.22  89 3.28
  66  0.972  0.498  0.489-  89 3.11  88 3.14  78 3.17  86 3.18  74 3.22  90 3.28
  67  0.472  0.998  0.489-  92 3.11  85 3.14  79 3.17  87 3.18  75 3.22  91 3.28
  68  0.972  0.002  0.489-  91 3.11  88 3.14  80 3.17  86 3.18  76 3.22  92 3.28
  69  0.472  0.502  0.989-  94 3.11  81 3.14  73 3.17  83 3.18  77 3.22  93 3.28
  70  0.972  0.498  0.989-  93 3.11  84 3.14  74 3.17  82 3.18  78 3.22  94 3.28
  71  0.472  0.998  0.989-  96 3.11  81 3.14  75 3.17  83 3.18  79 3.22  95 3.28
  72  0.972  0.002  0.989-  95 3.11  84 3.14  76 3.17  82 3.18  80 3.22  96 3.28
  73  0.455  0.501  0.238-  69 3.17  65 3.22
  74  0.955  0.499  0.238-  70 3.17  66 3.22
  75  0.455  0.999  0.238-  71 3.17  67 3.22
  76  0.955  0.001  0.238-  72 3.17  68 3.22
  77  0.455  0.501  0.738-  65 3.17  69 3.22
  78  0.955  0.499  0.738-  66 3.17  70 3.22
  79  0.455  0.999  0.738-  67 3.17  71 3.22
  80  0.955  0.001  0.738-  68 3.17  72 3.22
  81  0.480  0.250  0.006-  71 3.14  69 3.14
  82  0.920  0.250  0.017-  72 3.18  70 3.18
  83  0.420  0.750  0.017-  69 3.18  71 3.18
  84  0.980  0.750  0.006-  70 3.14  72 3.14
  85  0.480  0.250  0.506-  67 3.14  65 3.14
  86  0.920  0.250  0.517-  68 3.18  66 3.18
  87  0.420  0.750  0.517-  65 3.18  67 3.18
  88  0.980  0.750  0.506-  66 3.14  68 3.14
  89  0.216  0.464  0.461-  66 3.11  65 3.28
  90  0.716  0.536  0.461-  65 3.11  66 3.28
  91  0.216  0.036  0.461-  68 3.11  67 3.28
  92  0.716  0.964  0.461-  67 3.11  68 3.28
  93  0.216  0.464  0.961-  70 3.11  69 3.28
  94  0.716  0.536  0.961-  69 3.11  70 3.28
  95  0.216  0.036  0.961-  72 3.11  71 3.28
  96  0.716  0.964  0.961-  71 3.11  72 3.28
 
  LATTYP: Found a triclinic cell.
 ALAT       =    17.8238589327
 B/A-ratio  =     0.6989248630
 C/A-ratio  =     1.0156975818
 COS(alpha) =     0.0001355172
 COS(beta)  =     0.5146378593
 COS(gamma) =     0.6988877578
  
  Lattice vectors:
  
 A1 = (  -0.1406063366, -12.4576271275, -12.7466742118)
 A2 = (  -0.0011956322, -12.4575380825,   0.0007464135)
 A3 = ( -12.7162481321,  -0.0020049566, -12.8856194186)


Analysis of symmetry for initial positions (statically):
=====================================================================
 Subroutine PRICEL returns following result:
 
  LATTYP: Found a triclinic cell.
 ALAT       =     8.8502626515
 B/A-ratio  =     1.4075896561
 C/A-ratio  =     0.7202149489
 COS(alpha) =     0.0000518785
 COS(beta)  =     0.0156138721
 COS(gamma) =     0.7036188608
  
  Lattice vectors:
  
 A1 = (  -6.2878208978,   6.2278110854,  -0.0694726034)
 A2 = (   0.0011956322,  12.4575380825,  -0.0007464135)
 A3 = (  -0.0697053522,  -0.0000445225,  -6.3737103126)
 
   4 primitive cells build up your supercell.
 

 Routine SETGRP: Setting up the symmetry group for a 
 triclinic supercell.


 Subroutine GETGRP returns: Found  1 space group operations
 (whereof  1 operations were pure point group operations)
 out of a pool of  2 trial point group operations.


The static configuration has the point symmetry C_1 .


Analysis of symmetry for dynamics (positions and initial velocities):
=====================================================================
 Subroutine PRICEL returns following result:
 
  LATTYP: Found a triclinic cell.
 ALAT       =     8.8502626515
 B/A-ratio  =     1.4075896561
 C/A-ratio  =     0.7202149489
 COS(alpha) =     0.0000518785
 COS(beta)  =     0.0156138721
 COS(gamma) =     0.7036188608
  
  Lattice vectors:
  
 A1 = (  -6.2878208978,   6.2278110854,  -0.0694726034)
 A2 = (   0.0011956322,  12.4575380825,  -0.0007464135)
 A3 = (  -0.0697053522,  -0.0000445225,  -6.3737103126)
 
   4 primitive cells build up your supercell.
 

 Routine SETGRP: Setting up the symmetry group for a 
 triclinic supercell.


 Subroutine GETGRP returns: Found  1 space group operations
 (whereof  1 operations were pure point group operations)
 out of a pool of  2 trial point group operations.


The dynamic configuration has the point symmetry C_1 .


Analysis of structural, dynamic, and magnetic symmetry:
=====================================================================
 Subroutine PRICEL returns following result:
 
  LATTYP: Found a triclinic cell.
 ALAT       =     8.8502626515
 B/A-ratio  =     1.4075896561
 C/A-ratio  =     0.7202149489
 COS(alpha) =     0.0000518785
 COS(beta)  =     0.0156138721
 COS(gamma) =     0.7036188608
  
  Lattice vectors:
  
 A1 = (  -6.2878208978,   6.2278110854,  -0.0694726034)
 A2 = (   0.0011956322,  12.4575380825,  -0.0007464135)
 A3 = (  -0.0697053522,  -0.0000445225,  -6.3737103126)
 
   4 primitive cells build up your supercell.
 

 Routine SETGRP: Setting up the symmetry group for a 
 triclinic supercell.


 Subroutine GETGRP returns: Found  1 space group operations
 (whereof  1 operations were pure point group operations)
 out of a pool of  2 trial point group operations.


The (compounded) configuration has the point symmetry C_1 .


 Subroutine INISYM returns: Found  1 space group operations
 (whereof  1 operations are pure point group operations),
 and found     4 'primitive' translations

 
 
 KPOINTS: Automatic 3x3x3                         

Automatic generation of k-mesh.
Space group operators:
 irot       det(A)        alpha          n_x          n_y          n_z        tau_x        tau_y        tau_z
    1     1.000000     0.000000     1.000000     0.000000     0.000000     0.000000     0.000000     0.000000
 
 Subroutine IBZKPT returns following result:
 ===========================================
 
 Found     27 irreducible k-points:
 
 Following reciprocal coordinates:
            Coordinates               Weight
  0.000000  0.000000  0.000000      1.000000
  0.333333 -0.000000 -0.000000      1.000000
 -0.333333  0.000000  0.000000      1.000000
  0.000000  0.333333 -0.000000      1.000000
  0.333333  0.333333  0.000000      1.000000
 -0.333333  0.333333  0.000000      1.000000
 -0.000000 -0.333333  0.000000      1.000000
  0.333333 -0.333333 -0.000000      1.000000
 -0.333333 -0.333333 -0.000000      1.000000
  0.000000  0.000000  0.333333      1.000000
  0.333333  0.000000  0.333333      1.000000
 -0.333333  0.000000  0.333333      1.000000
  0.000000  0.333333  0.333333      1.000000
  0.333333  0.333333  0.333333      1.000000
 -0.333333  0.333333  0.333333      1.000000
  0.000000 -0.333333  0.333333      1.000000
  0.333333 -0.333333  0.333333      1.000000
 -0.333333 -0.333333  0.333333      1.000000
  0.000000  0.000000 -0.333333      1.000000
  0.333333 -0.000000 -0.333333      1.000000
 -0.333333 -0.000000 -0.333333      1.000000
 -0.000000  0.333333 -0.333333      1.000000
  0.333333  0.333333 -0.333333      1.000000
 -0.333333  0.333333 -0.333333      1.000000
 -0.000000 -0.333333 -0.333333      1.000000
  0.333333 -0.333333 -0.333333      1.000000
 -0.333333 -0.333333 -0.333333      1.000000
 
 Following cartesian coordinates:
            Coordinates               Weight
  0.000000  0.000000  0.000000      1.000000
  0.026507 -0.000003 -0.000290      1.000000
 -0.026507  0.000003  0.000290      1.000000
 -0.000004  0.026758 -0.000000      1.000000
  0.026503  0.026755 -0.000290      1.000000
 -0.026511  0.026760  0.000290      1.000000
  0.000004 -0.026758  0.000000      1.000000
  0.026511 -0.026760 -0.000290      1.000000
 -0.026503 -0.026755  0.000290      1.000000
 -0.000287  0.000002  0.026152      1.000000
  0.026220 -0.000001  0.025862      1.000000
 -0.026794  0.000004  0.026442      1.000000
 -0.000291  0.026759  0.026152      1.000000
  0.026215  0.026757  0.025862      1.000000
 -0.026798  0.026762  0.026442      1.000000
 -0.000283 -0.026756  0.026152      1.000000
  0.026224 -0.026759  0.025862      1.000000
 -0.026790 -0.026753  0.026442      1.000000
  0.000287 -0.000002 -0.026152      1.000000
  0.026794 -0.000004 -0.026442      1.000000
 -0.026220  0.000001 -0.025862      1.000000
  0.000283  0.026756 -0.026152      1.000000
  0.026790  0.026753 -0.026442      1.000000
 -0.026224  0.026759 -0.025862      1.000000
  0.000291 -0.026759 -0.026152      1.000000
  0.026798 -0.026762 -0.026442      1.000000
 -0.026215 -0.026757 -0.025862      1.000000
 


--------------------------------------------------------------------------------------------------------




 Dimension of arrays:
   k-points           NKPTS =     27   k-points in BZ     NKDIM =     27   number of bands    NBANDS=    600
   number of dos      NEDOS =    301   number of ions     NIONS =     96
   non local maximal  LDIM  =      6   non local SUM 2l+1 LMDIM =     18
   total plane-waves  NPLWV = ******
   max r-space proj   IRMAX =      1   max aug-charges    IRDMAX= 314103
   dimension x,y,z NGX =   112 NGY =  108 NGZ =  112
   dimension x,y,z NGXF=   224 NGYF=  216 NGZF=  224
   support grid    NGXF=   448 NGYF=  432 NGZF=  448
   ions per type =               8   8  48   8  24
 NGX,Y,Z   is equivalent  to a cutoff of  14.80, 14.41, 14.61 a.u.
 NGXF,Y,Z  is equivalent  to a cutoff of  29.61, 28.83, 29.21 a.u.


 I would recommend the setting:
   dimension x,y,z NGX =   109 NGY =  107 NGZ =  110
 SYSTEM =  MAPbI3-Cubic                            
 POSCAR =  C N H Pb I                              

 Startparameter for this run:
   NWRITE =      2    write-flag & timer
   PREC   = accura    normal or accurate (medium, high low for compatibility)
   ISTART =      0    job   : 0-new  1-cont  2-samecut
   ICHARG =      2    charge: 1-file 2-atom 10-const
   ISPIN  =      1    spin polarized calculation?
   LNONCOLLINEAR =      T non collinear calculations
   LSORBIT =      T    spin-orbit coupling
   INIWAV =      1    electr: 0-lowe 1-rand  2-diag
   LASPH  =      F    aspherical Exc in radial PAW
   METAGGA=      F    non-selfconsistent MetaGGA calc.

 Electronic Relaxation 1
   ENCUT  =  700.0 eV  51.45 Ry    7.17 a.u.  27.13 26.87 27.50*2*pi/ulx,y,z
   ENINI  =  700.0     initial cutoff
   ENAUG  =  644.9 eV  augmentation charge cutoff
   NELM   =     60;   NELMIN=  2; NELMDL= -5     # of ELM steps 
   EDIFF  = 0.1E-07   stopping-criterion for ELM
   LREAL  =      F    real-space projection
   NLSPLINE    = F    spline interpolate recip. space projectors
   LCOMPAT=      F    compatible to vasp.4.4
   GGA_COMPAT  = T    GGA compatible to vasp.4.4-vasp.4.6
   LMAXPAW     = -100 max onsite density
   LMAXMIX     =    2 max onsite mixed and CHGCAR
   VOSKOWN=      0    Vosko Wilk Nusair interpolation
   ROPT   =    0.00000   0.00000   0.00000   0.00000
   ROPT   =    0.00000
 Ionic relaxation
   EDIFFG = 0.1E-06   stopping-criterion for IOM
   NSW    =      0    number of steps for IOM
   NBLOCK =      1;   KBLOCK =      1    inner block; outer block 
   IBRION =     -1    ionic relax: 0-MD 1-quasi-New 2-CG
   NFREE  =      0    steps in history (QN), initial steepest desc. (CG)
   ISIF   =      2    stress and relaxation
   IWAVPR =     10    prediction:  0-non 1-charg 2-wave 3-comb
   ISYM   =      2    0-nonsym 1-usesym 2-fastsym
   LCORR  =      T    Harris-Foulkes like correction to forces

   POTIM  = 0.5000    time-step for ionic-motion
   TEIN   =    0.0    initial temperature
   TEBEG  =    0.0;   TEEND  =   0.0 temperature during run
   SMASS  =  -3.00    Nose mass-parameter (am)
   estimated Nose-frequenzy (Omega)   =  0.10E-29 period in steps =****** mass=  -0.362E-26a.u.
   SCALEE = 1.0000    scale energy and forces
   NPACO  =    256;   APACO  = 16.0  distance and # of slots for P.C.
   PSTRESS=    0.0 pullay stress

  Mass of Ions in am
   POMASS =  12.01 14.00  1.00207.20126.90
  Ionic Valenz
   ZVAL   =   4.00  5.00  1.00 14.00  7.00
  Atomic Wigner-Seitz radii
   RWIGS  =  -1.00 -1.00 -1.00 -1.00 -1.00
  virtual crystal weights 
   VCA    =   1.00  1.00  1.00  1.00  1.00
   NELECT =     400.0000    total number of electrons
   NUPDOWN=      -1.0000    fix difference up-down

 DOS related values:
   EMIN   =  10.00;   EMAX   =-10.00  energy-range for DOS
   EFERMI =   0.00
   ISMEAR =     0;   SIGMA  =   0.00  broadening in eV -4-tet -1-fermi 0-gaus

 Electronic relaxation 2 (details)
   IALGO  =     38    algorithm
   LDIAG  =      T    sub-space diagonalisation (order eigenvalues)
   LSUBROT=      F    optimize rotation matrix (better conditioning)
   TURBO    =      0    0=normal 1=particle mesh
   IRESTART =      0    0=no restart 2=restart with 2 vectors
   NREBOOT  =      0    no. of reboots
   NMIN     =      0    reboot dimension
   EREF     =   0.00    reference energy to select bands
   IMIX   =      4    mixing-type and parameters
     AMIX     =   0.40;   BMIX     =  1.00
     AMIX_MAG =   1.60;   BMIX_MAG =  1.00
     AMIN     =   0.10
     WC   =   100.;   INIMIX=   1;  MIXPRE=   1;  MAXMIX= -45

 Intra band minimization:
   WEIMIN = 0.0000     energy-eigenvalue tresh-hold
   EBREAK =  0.42E-11  absolut break condition
   DEPER  =   0.30     relativ break condition  

   TIME   =   0.40     timestep for ELM

  volume/ion in A,a.u.               =      20.80       140.38
  Fermi-wavevector in a.u.,A,eV,Ry     =   0.957863  1.810099 12.483376  0.917502
  Thomas-Fermi vector in A             =   2.086919
 
 Write flags
   LWAVE  =      F    write WAVECAR
   LCHARG =      F    write CHGCAR
   LVTOT  =      F    write LOCPOT, total local potential
   LVHAR  =      F    write LOCPOT, Hartree potential only
   LELF   =      F    write electronic localiz. function (ELF)
   LORBIT =      0    0 simple, 1 ext, 2 COOP (PROOUT)


 Dipole corrections
   LMONO  =      F    monopole corrections only (constant potential shift)
   LDIPOL =      F    correct potential (dipole corrections)
   IDIPOL =      0    1-x, 2-y, 3-z, 4-all directions 
   EPSILON=  1.0000000 bulk dielectric constant

 Core level calculations are selected ICORELEVEL =  1
 Exchange correlation treatment:
   GGA     =    PS    GGA type
   LEXCH   =    14    internal setting for exchange type
   VOSKOWN=      0    Vosko Wilk Nusair interpolation
   LHFCALC =     F    Hartree Fock is set to
   LHFONE  =     F    Hartree Fock one center treatment
   AEXX    =    0.0000 exact exchange contribution

 Linear response parameters
   LEPSILON=     F    determine dielectric tensor
   LRPA    =     F    only Hartree local field effects (RPA)
   LNABLA  =     F    use nabla operator in PAW spheres
   LVEL    =     F    velocity operator in full k-point grid
   LINTERFAST=   F  fast interpolation
   KINTER  =     0    interpolate to denser k-point grid
   CSHIFT  =0.1000    complex shift for real part using Kramers Kronig
   OMEGAMAX=  -1.0    maximum frequency
   DEG_THRESHOLD= 0.2000000E-02 threshold for treating states as degnerate
   RTIME   =    0.100 relaxation time in fs

 Orbital magnetization related:
   ORBITALMAG=     F  switch on orbital magnetization
   LCHIMAG   =     F  perturbation theory with respect to B field
   DQ        =  0.001000  dq finite difference perturbation B field



--------------------------------------------------------------------------------------------------------


 Static calculation
 charge density and potential will be updated during run
 non collinear spin polarized calculation
 Variant of blocked Davidson
 Davidson routine will perform the subspace rotation
 perform sub-space diagonalisation
    after iterative eigenvector-optimisation
 modified Broyden-mixing scheme, WC =      100.0
 initial mixing is a Kerker type mixing with AMIX =  0.4000 and BMIX =      1.0000
 Hartree-type preconditioning will be used
 using additional bands          400
 reciprocal scheme for non local part
 use partial core corrections
 calculate Harris-corrections to forces 
   (improved forces if not selfconsistent)
 use gradient corrections 
 use of overlap-Matrix (Vanderbilt PP)
 Gauss-broadening in eV      SIGMA  =   0.00


--------------------------------------------------------------------------------------------------------


  energy-cutoff  :      700.00
  volume of cell :     1996.98
      direct lattice vectors                 reciprocal lattice vectors
    12.576837428  0.001915912  0.138198793     0.079520802 -0.000007684 -0.000869670
     0.001195632 12.457538083 -0.000746413    -0.000012224  0.080272684 -0.000000427
     0.139410704  0.000089045 12.747420625    -0.000862111  0.000004784  0.078456671

  length of vectors
    12.577596840 12.457538162 12.748182927     0.079525558  0.080272685  0.078461408


 
 k-points in units of 2pi/SCALE and weight: Automatic 3x3x3                         
   0.00000000  0.00000000  0.00000000       0.037
   0.02650693 -0.00000256 -0.00028989       0.037
  -0.02650693  0.00000256  0.00028989       0.037
  -0.00000407  0.02675756 -0.00000014       0.037
   0.02650286  0.02675500 -0.00029003       0.037
  -0.02651101  0.02676012  0.00028975       0.037
   0.00000407 -0.02675756  0.00000014       0.037
   0.02651101 -0.02676012 -0.00028975       0.037
  -0.02650286 -0.02675500  0.00029003       0.037
  -0.00028737  0.00000159  0.02615222       0.037
   0.02621956 -0.00000097  0.02586233       0.037
  -0.02679430  0.00000416  0.02644211       0.037
  -0.00029144  0.02675916  0.02615208       0.037
   0.02621549  0.02675659  0.02586219       0.037
  -0.02679838  0.02676172  0.02644197       0.037
  -0.00028330 -0.02675597  0.02615237       0.037
   0.02622364 -0.02675853  0.02586248       0.037
  -0.02679023 -0.02675341  0.02644226       0.037
   0.00028737 -0.00000159 -0.02615222       0.037
   0.02679430 -0.00000416 -0.02644211       0.037
  -0.02621956  0.00000097 -0.02586233       0.037
   0.00028330  0.02675597 -0.02615237       0.037
   0.02679023  0.02675341 -0.02644226       0.037
  -0.02622364  0.02675853 -0.02586248       0.037
   0.00029144 -0.02675916 -0.02615208       0.037
   0.02679838 -0.02676172 -0.02644197       0.037
  -0.02621549 -0.02675659 -0.02586219       0.037
 
 k-points in reciprocal lattice and weights: Automatic 3x3x3                         
   0.00000000  0.00000000  0.00000000       0.037
   0.33333333 -0.00000000 -0.00000000       0.037
  -0.33333333  0.00000000  0.00000000       0.037
   0.00000000  0.33333333 -0.00000000       0.037
   0.33333333  0.33333333  0.00000000       0.037
  -0.33333333  0.33333333  0.00000000       0.037
  -0.00000000 -0.33333333  0.00000000       0.037
   0.33333333 -0.33333333 -0.00000000       0.037
  -0.33333333 -0.33333333 -0.00000000       0.037
   0.00000000  0.00000000  0.33333333       0.037
   0.33333333  0.00000000  0.33333333       0.037
  -0.33333333  0.00000000  0.33333333       0.037
   0.00000000  0.33333333  0.33333333       0.037
   0.33333333  0.33333333  0.33333333       0.037
  -0.33333333  0.33333333  0.33333333       0.037
   0.00000000 -0.33333333  0.33333333       0.037
   0.33333333 -0.33333333  0.33333333       0.037
  -0.33333333 -0.33333333  0.33333333       0.037
   0.00000000  0.00000000 -0.33333333       0.037
   0.33333333 -0.00000000 -0.33333333       0.037
  -0.33333333 -0.00000000 -0.33333333       0.037
  -0.00000000  0.33333333 -0.33333333       0.037
   0.33333333  0.33333333 -0.33333333       0.037
  -0.33333333  0.33333333 -0.33333333       0.037
  -0.00000000 -0.33333333 -0.33333333       0.037
   0.33333333 -0.33333333 -0.33333333       0.037
  -0.33333333 -0.33333333 -0.33333333       0.037
 
 position of ions in fractional coordinates (direct lattice) 
   0.20653235  0.24994805  0.21405981
   0.68745592  0.24986850  0.24377089
   0.18745592  0.74986850  0.24377089
   0.70653235  0.74994805  0.21405981
   0.20653235  0.24994805  0.71405981
   0.68745592  0.24986850  0.74377089
   0.18745592  0.74986850  0.74377089
   0.70653235  0.74994805  0.71405981
   0.30716205  0.25003382  0.27472458
   0.80191239  0.24997347  0.27304402
   0.30191239  0.74997347  0.27304402
   0.80716205  0.75003382  0.27472458
   0.30716205  0.25003382  0.77472458
   0.80191239  0.24997347  0.77304402
   0.30191239  0.74997347  0.77304402
   0.80716205  0.75003382  0.77472458
   0.22751856  0.24981983  0.12893560
   0.68263177  0.24982236  0.15684165
   0.18263177  0.74982236  0.15684165
   0.72751856  0.74981983  0.12893560
   0.22751856  0.24981983  0.62893560
   0.68263177  0.24982236  0.65684165
   0.18263177  0.74982236  0.65684165
   0.72751856  0.74981983  0.62893560
   0.16029952  0.32250057  0.23470107
   0.64837610  0.32220381  0.27632957
   0.14837610  0.82220381  0.27632957
   0.66029952  0.82250057  0.23470107
   0.16029952  0.32250057  0.73470107
   0.64837610  0.32220381  0.77632957
   0.14837610  0.82220381  0.77632957
   0.66029952  0.82250057  0.73470107
   0.16034399  0.17745329  0.23490679
   0.64854168  0.17749885  0.27639463
   0.14854168  0.67749885  0.27639463
   0.66034399  0.67745329  0.23490679
   0.16034399  0.17745329  0.73490679
   0.64854168  0.17749885  0.77639463
   0.14854168  0.67749885  0.77639463
   0.66034399  0.67745329  0.73490679
   0.35377952  0.31819239  0.25784841
   0.84248963  0.31755618  0.24366457
   0.34248963  0.81755618  0.24366457
   0.85377952  0.81819239  0.25784841
   0.35377952  0.31819239  0.75784841
   0.84248963  0.31755618  0.74366457
   0.34248963  0.81755618  0.74366457
   0.85377952  0.81819239  0.75784841
   0.35379144  0.18180046  0.25805617
   0.84261916  0.18240931  0.24372563
   0.34261916  0.68240931  0.24372563
   0.85379144  0.68180046  0.25805617
   0.35379144  0.18180046  0.75805617
   0.84261916  0.18240931  0.74372563
   0.34261916  0.68240931  0.74372563
   0.85379144  0.68180046  0.75805617
   0.29245873  0.25017598  0.35603420
   0.81388142  0.25001107  0.35518429
   0.31388142  0.75001107  0.35518429
   0.79245873  0.75017598  0.35603420
   0.29245873  0.25017598  0.85603420
   0.81388142  0.25001107  0.85518429
   0.31388142  0.75001107  0.85518429
   0.79245873  0.75017598  0.85603420
   0.47245014  0.50154516  0.48880937
   0.97243341  0.49843443  0.48881352
   0.47243341  0.99843443  0.48881352
   0.97245014  0.00154516  0.48880937
   0.47245014  0.50154516  0.98880937
   0.97243341  0.49843443  0.98881352
   0.47243341  0.99843443  0.98881352
   0.97245014  0.00154516  0.98880937
   0.45476685  0.50081923  0.23756781
   0.95472050  0.49916287  0.23757767
   0.45472050  0.99916287  0.23757767
   0.95476685  0.00081923  0.23756781
   0.45476685  0.50081923  0.73756781
   0.95472050  0.49916287  0.73757767
   0.45472050  0.99916287  0.73757767
   0.95476685  0.00081923  0.73756781
   0.47959676  0.24997309  0.00620179
   0.91967412  0.24998493  0.01746264
   0.41967412  0.74998493  0.01746264
   0.97959676  0.74997309  0.00620179
   0.47959676  0.24997309  0.50620179
   0.91967412  0.24998493  0.51746264
   0.41967412  0.74998493  0.51746264
   0.97959676  0.74997309  0.50620179
   0.21617867  0.46423660  0.46123970
   0.71616421  0.53575828  0.46123971
   0.21616421  0.03575828  0.46123971
   0.71617867  0.96423660  0.46123970
   0.21617867  0.46423660  0.96123970
   0.71616421  0.53575828  0.96123971
   0.21616421  0.03575828  0.96123971
   0.71617867  0.96423660  0.96123970
 
 position of ions in cartesian coordinates  (Angst):
   2.62766483  3.11415208  2.75706645
   8.68030434  3.11408520  3.20226920
   2.39248344  9.34189628  3.13279659
   8.91668136  9.34387908  2.82579264
   2.69737018  3.11419661  9.13077676
   8.75000969  3.11412972  9.57597951
   2.46218879  9.34194080  9.50650691
   8.98638671  9.34392360  9.19950295
   3.90172563  3.11541873  3.54429251
  10.12388590  3.11561468  3.59124368
   3.83606500  9.34342577  3.52177108
  10.19074216  9.34514573  3.61301870
   3.97143098  3.11546325  9.91800282
  10.19359125  3.11565920  9.96495400
   3.90577035  9.34347029  9.89548139
  10.26044751  9.34519025  9.98672901
   2.87973765  3.11258746  1.67485269
   8.60751294  3.11349340  2.09347889
   2.31969204  9.34130449  2.02400628
   9.16875418  9.34231445  1.74357888
   2.94944300  3.11263198  8.04856300
   8.67721829  3.11353792  8.46718920
   2.38939739  9.34134901  8.39771660
   9.23845953  9.34235898  8.11728919
   2.04916639  4.01789113  3.01374578
   8.19342930  4.01513301  3.61185350
   1.90560841 10.24294409  3.54238090
   8.33818292 10.24761813  3.08247197
   2.11887174  4.01793565  9.38745609
   8.26313466  4.01517753  9.98556381
   1.97531376 10.24298862  9.91609121
   8.40788827 10.24766265  9.45618228
   2.04958099  2.21095927  3.01648253
   8.19534782  2.21246590  3.61281374
   1.90752693  8.44027699  3.54334113
   8.33859752  8.44068627  3.08520872
   2.11928635  2.21100379  9.39019284
   8.26505318  2.21251042  9.98652405
   1.97723228  8.44032151  9.91705145
   8.40830288  8.44073079  9.45891903
   4.48575484  3.96459455  3.33555657
  10.63020424  3.95760402  3.22228878
   4.34238335 10.18541511  3.15281618
  10.77477137 10.19432155  3.40428276
   4.55546019  3.96463907  9.70926688
  10.69990960  3.95764854  9.59599910
   4.41208870 10.18545963  9.52652649
  10.84447672 10.19436607  9.77799307
   4.48577056  2.26548697  3.33830843
  10.63168028  2.27400707  3.22318588
   4.34385938  8.50181816  3.15371328
  10.77478709  8.49521397  3.40703462
   4.55547591  2.26553149  9.71201875
  10.70138563  2.27405159  9.59689619
   4.41356473  8.50186268  9.52742359
  10.84449244  8.49525849  9.78074494
   3.72814001  3.11716877  4.57874837
  10.28586966  3.11611336  4.63997440
   3.99804876  9.34392444  4.57050180
  10.01715654  9.34689576  4.64747456
   3.79784536  3.11721329 10.95245868
  10.35557501  3.11615788 11.01368471
   4.06775411  9.34396896 10.94421211
  10.08686189  9.34694029 11.02118487
   6.01067350  6.24896664  6.29597637
  12.29887874  6.21117250  6.36512864
   6.01105785 12.43898359  6.29565603
  12.29849439  0.02115555  6.36544898
   6.08037885  6.24901116 12.66968668
  12.36858410  6.21121703 12.73883895
   6.08076320 12.43902811 12.66936635
  12.36819975  0.02120008 12.73915929
   5.75324705  6.23986702  3.09085125
  12.04108217  6.22019082  3.16007114
   5.75326127 12.44800190  3.09059854
  12.04106795  0.01205594  3.16032385
   5.82295240  6.23991155  9.46456156
  12.11078752  6.22023534  9.53378146
   5.82296662 12.44804643  9.46430885
  12.11077330  0.01210046  9.53403417
   6.03297399  3.11496873  0.14514995
  11.56932521  3.11596034  0.34951493
   5.28150431  9.34377143  0.28004233
  12.32199052  9.34469573  0.21387614
   6.10267935  3.11501325  6.51886027
  11.63903056  3.11600487  6.72322524
   5.35120967  9.34381595  6.65375264
  12.39169588  9.34474025  6.58758646
   2.78370081  5.78370031  5.90914554
   9.07202311  6.67564232  5.97818969
   2.78300658  0.44591533  5.90946350
   9.07271734 12.01342731  5.97787173
   2.85340616  5.78374484 12.28285585
   9.14172847  6.67568685 12.35190000
   2.85271194  0.44595985 12.28317381
   9.14242269 12.01347183 12.35158204
 
 Euler angles ALPHA=     0.0000000  BETA=     0.0000000

 transformation matrix from SAXIS to cartesian coordinates
 ---------------------------------------------------------
     1.0000000 m_x     0.0000000 m_y     0.0000000 m_z
     0.0000000 m_x     1.0000000 m_y     0.0000000 m_z
     0.0000000 m_x     0.0000000 m_y     1.0000000 m_z

 transformation matrix from cartesian coordinates to SAXIS
 ---------------------------------------------------------
     1.0000000 m_x     0.0000000 m_y     0.0000000 m_z
     0.0000000 m_x     1.0000000 m_y     0.0000000 m_z
     0.0000000 m_x     0.0000000 m_y     1.0000000 m_z




--------------------------------------------------------------------------------------------------------


 k-point  1 :   0.0000 0.0000 0.0000  plane waves:  168014
 k-point  2 :   0.3333-0.0000-0.0000  plane waves:  168006
 k-point  3 :  -0.3333 0.0000 0.0000  plane waves:  168006
 k-point  4 :   0.0000 0.3333-0.0000  plane waves:  167990
 k-point  5 :   0.3333 0.3333 0.0000  plane waves:  168036
 k-point  6 :  -0.3333 0.3333 0.0000  plane waves:  168038
 k-point  7 :  -0.0000-0.3333 0.0000  plane waves:  167990
 k-point  8 :   0.3333-0.3333-0.0000  plane waves:  168038
 k-point  9 :  -0.3333-0.3333-0.0000  plane waves:  168036
 k-point 10 :   0.0000 0.0000 0.3333  plane waves:  167920
 k-point 11 :   0.3333 0.0000 0.3333  plane waves:  167874
 k-point 12 :  -0.3333 0.0000 0.3333  plane waves:  167964
 k-point 13 :   0.0000 0.3333 0.3333  plane waves:  167968
 k-point 14 :   0.3333 0.3333 0.3333  plane waves:  168024
 k-point 15 :  -0.3333 0.3333 0.3333  plane waves:  167940
 k-point 16 :   0.0000-0.3333 0.3333  plane waves:  167954
 k-point 17 :   0.3333-0.3333 0.3333  plane waves:  168026
 k-point 18 :  -0.3333-0.3333 0.3333  plane waves:  167946
 k-point 19 :   0.0000 0.0000-0.3333  plane waves:  167920
 k-point 20 :   0.3333-0.0000-0.3333  plane waves:  167964
 k-point 21 :  -0.3333-0.0000-0.3333  plane waves:  167874
 k-point 22 :  -0.0000 0.3333-0.3333  plane waves:  167954
 k-point 23 :   0.3333 0.3333-0.3333  plane waves:  167946
 k-point 24 :  -0.3333 0.3333-0.3333  plane waves:  168026
 k-point 25 :  -0.0000-0.3333-0.3333  plane waves:  167968
 k-point 26 :   0.3333-0.3333-0.3333  plane waves:  167940
 k-point 27 :  -0.3333-0.3333-0.3333  plane waves:  168024

 maximum and minimum number of plane-waves per node :      7122     6820

 maximum number of plane-waves:    168038
 maximum index in each direction: 
   IXMAX=   27   IYMAX=   27   IZMAX=   27
   IXMIN=  -27   IYMIN=  -27   IZMIN=  -27

 NGX is ok and might be reduce to 110
 WARNING: aliasing errors must be expected set NGY to 110 to avoid them
 NGZ is ok and might be reduce to 110
 aliasing errors are usually negligible using standard VASP settings
 and one can safely disregard these warnings

 parallel 3D FFT for wavefunctions:
    minimum data exchange during FFTs selected (reduces bandwidth)
 parallel 3D FFT for charge:
    minimum data exchange during FFTs selected (reduces bandwidth)


 total amount of memory used by VASP on root node   392927. kBytes
========================================================================

   base      :      30000. kBytes
   nonl-proj :      73667. kBytes
   fftplans  :      22714. kBytes
   grid      :      35610. kBytes
   one-center:        248. kBytes
   wavefun   :     230688. kBytes
 
     INWAV:  cpu time    0.0000: real time    0.0000
 Broyden mixing: mesh for mixing (old mesh)
   NGX = 55   NGY = 53   NGZ = 55
  (NGX  =224   NGY  =216   NGZ  =224)
  gives a total of 160325 points

 initial charge density was supplied:
 charge density of overlapping atoms calculated
 number of electron     400.0000000 magnetization      96.0000000     96.0000000     96.0000000
 keeping initial charge density in first step


--------------------------------------------------------------------------------------------------------


 Maximum index for augmentation-charges         5345 (set IRDMAX)


--------------------------------------------------------------------------------------------------------


 First call to EWALD:  gamma=   0.141
 Maximum number of real-space cells 3x 3x 3
 Maximum number of reciprocal cells 3x 3x 3

 FEWALD executed in parallel
    FEWALD:  cpu time    0.0040: real time    0.0035


----------------------------------------- Iteration    1(   1)  ---------------------------------------


    POTLOK:  cpu time    0.5880: real time    0.5902
    SETDIJ:  cpu time    2.1241: real time    2.1257
     EDDAV:  cpu time  237.1108: real time  237.2662
       DOS:  cpu time    0.0080: real time    0.0068
    --------------------------------------------
      LOOP:  cpu time  239.8350: real time  240.0124

 eigenvalue-minimisations  : 32544
 total energy-change (2. order) : 0.4216988E+04  (-0.1927933E+05)
 number of electron     400.0000000 magnetization      96.0000000     96.0000000     96.0000000
 augmentation part      400.0000000 magnetization      96.0000000     96.0000000     96.0000000

 Free energy of the ion-electron system (eV)
  ---------------------------------------------------
  alpha Z        PSCENC =       370.05370877
  Ewald energy   TEWEN  =    -15581.43390900
  -Hartree energ DENC   =     -8080.49687976
  -exchange      EXHF   =         0.00000000
  -V(xc)+E(xc)   XCENC  =       671.44358713
  PAW double counting   =     20172.90621935   -19413.33347658
  entropy T*S    EENTRO =        -0.00002023
  eigenvalues    EBANDS =      1328.84180620
  atomic energy  EATOM  =     24749.00668030
  Solvation  Ediel_sol  =         0.00000000
  ---------------------------------------------------
  free energy    TOTEN  =      4216.98771617 eV

  energy without entropy =     4216.98773641  energy(sigma->0) =     4216.98772629


--------------------------------------------------------------------------------------------------------




----------------------------------------- Iteration    1(   2)  ---------------------------------------


     EDDAV:  cpu time  253.5878: real time  253.7555
       DOS:  cpu time    0.0080: real time    0.0087
    --------------------------------------------
      LOOP:  cpu time  253.5958: real time  253.7745

 eigenvalue-minimisations  : 35616
 total energy-change (2. order) :-0.3376455E+04  (-0.3126637E+04)
 number of electron     400.0000000 magnetization      96.0000000     96.0000000     96.0000000
 augmentation part      400.0000000 magnetization      96.0000000     96.0000000     96.0000000

 Free energy of the ion-electron system (eV)
  ---------------------------------------------------
  alpha Z        PSCENC =       370.05370877
  Ewald energy   TEWEN  =    -15581.43390900
  -Hartree energ DENC   =     -8080.49687976
  -exchange      EXHF   =         0.00000000
  -V(xc)+E(xc)   XCENC  =       671.44358713
  PAW double counting   =     20172.90621935   -19413.33347658
  entropy T*S    EENTRO =        -0.00002699
  eigenvalues    EBANDS =     -2047.61306317
  atomic energy  EATOM  =     24749.00668030
  Solvation  Ediel_sol  =         0.00000000
  ---------------------------------------------------
  free energy    TOTEN  =       840.53284005 eV

  energy without entropy =      840.53286704  energy(sigma->0) =      840.53285355


--------------------------------------------------------------------------------------------------------




----------------------------------------- Iteration    1(   3)  ---------------------------------------


     EDDAV:  cpu time  298.4467: real time  298.6481
       DOS:  cpu time    0.0080: real time    0.0070
    --------------------------------------------
      LOOP:  cpu time  298.4587: real time  298.7357

 eigenvalue-minimisations  : 44016
 total energy-change (2. order) :-0.6081840E+03  (-0.5881173E+03)
 number of electron     400.0000000 magnetization      96.0000000     96.0000000     96.0000000
 augmentation part      400.0000000 magnetization      96.0000000     96.0000000     96.0000000

 Free energy of the ion-electron system (eV)
  ---------------------------------------------------
  alpha Z        PSCENC =       370.05370877
  Ewald energy   TEWEN  =    -15581.43390900
  -Hartree energ DENC   =     -8080.49687976
  -exchange      EXHF   =         0.00000000
  -V(xc)+E(xc)   XCENC  =       671.44358713
  PAW double counting   =     20172.90621935   -19413.33347658
  entropy T*S    EENTRO =        -0.00003137
  eigenvalues    EBANDS =     -2655.79703741
  atomic energy  EATOM  =     24749.00668030
  Solvation  Ediel_sol  =         0.00000000
  ---------------------------------------------------
  free energy    TOTEN  =       232.34886144 eV

  energy without entropy =      232.34889281  energy(sigma->0) =      232.34887712


--------------------------------------------------------------------------------------------------------




----------------------------------------- Iteration    1(   4)  ---------------------------------------


     EDDAV:  cpu time  300.0348: real time  300.2343
       DOS:  cpu time    0.0080: real time    0.0078
    --------------------------------------------
      LOOP:  cpu time  300.0428: real time  300.5375

 eigenvalue-minimisations  : 44288
 total energy-change (2. order) :-0.4554172E+02  (-0.4450229E+02)
 number of electron     400.0000000 magnetization      96.0000000     96.0000000     96.0000000
 augmentation part      400.0000000 magnetization      96.0000000     96.0000000     96.0000000

 Free energy of the ion-electron system (eV)
  ---------------------------------------------------
  alpha Z        PSCENC =       370.05370877
  Ewald energy   TEWEN  =    -15581.43390900
  -Hartree energ DENC   =     -8080.49687976
  -exchange      EXHF   =         0.00000000
  -V(xc)+E(xc)   XCENC  =       671.44358713
  PAW double counting   =     20172.90621935   -19413.33347658
  entropy T*S    EENTRO =        -0.00014859
  eigenvalues    EBANDS =     -2701.33864390
  atomic energy  EATOM  =     24749.00668030
  Solvation  Ediel_sol  =         0.00000000
  ---------------------------------------------------
  free energy    TOTEN  =       186.80713772 eV

  energy without entropy =      186.80728631  energy(sigma->0) =      186.80721202


--------------------------------------------------------------------------------------------------------




----------------------------------------- Iteration    1(   5)  ---------------------------------------


     EDDAV:  cpu time  331.2367: real time  331.4593
       DOS:  cpu time    0.0080: real time    0.0069
    CHARGE:  cpu time   11.7807: real time   11.7902
    MIXING:  cpu time    0.0160: real time    0.0147
    --------------------------------------------
      LOOP:  cpu time  343.0454: real time  343.3217

 eigenvalue-minimisations  : 50104
 total energy-change (2. order) :-0.2099243E+01  (-0.2088562E+01)
 number of electron     400.0000000 magnetization      67.2133957     67.2160842     67.2182394
 augmentation part        6.9074611 magnetization      63.2304044     63.2236691     63.2181735

 Broyden mixing:
  rms(total) = 0.97140E+01    rms(broyden)= 0.97138E+01
  rms(prec ) = 0.10208E+02
  weight for this iteration     100.00

 Free energy of the ion-electron system (eV)
  ---------------------------------------------------
  alpha Z        PSCENC =       370.05370877
  Ewald energy   TEWEN  =    -15581.43390900
  -Hartree energ DENC   =     -8080.49687976
  -exchange      EXHF   =         0.00000000
  -V(xc)+E(xc)   XCENC  =       671.44358713
  PAW double counting   =     20172.90621935   -19413.33347658
  entropy T*S    EENTRO =        -0.00012633
  eigenvalues    EBANDS =     -2703.43790946
  atomic energy  EATOM  =     24749.00668030
  Solvation  Ediel_sol  =         0.00000000
  ---------------------------------------------------
  free energy    TOTEN  =       184.70789442 eV

  energy without entropy =      184.70802075  energy(sigma->0) =      184.70795759


--------------------------------------------------------------------------------------------------------




----------------------------------------- Iteration    1(   6)  ---------------------------------------


    POTLOK:  cpu time    0.5680: real time    0.5667
    SETDIJ:  cpu time    2.1121: real time    2.1139
     EDDAV:  cpu time  262.0284: real time  262.2025
       DOS:  cpu time    0.0040: real time    0.0059
    CHARGE:  cpu time   11.8647: real time   11.8699
    MIXING:  cpu time    0.0160: real time    0.0162
    --------------------------------------------
      LOOP:  cpu time  276.5933: real time  276.8263

 eigenvalue-minimisations  : 37160
 total energy-change (2. order) :-0.1312081E+03  (-0.1510948E+03)
 number of electron     400.0000000 magnetization      50.2782855     50.2781132     50.2816094
 augmentation part        6.0080651 magnetization      51.1625305     51.1699798     51.1653576

 Broyden mixing:
  rms(total) = 0.48137E+01    rms(broyden)= 0.48136E+01
  rms(prec ) = 0.50028E+01
  weight for this iteration     100.00

 eigenvalues of (default mixing * dielectric matrix)
  average eigenvalue GAMMA=   0.7632
  0.7632

 Free energy of the ion-electron system (eV)
  ---------------------------------------------------
  alpha Z        PSCENC =       370.05370877
  Ewald energy   TEWEN  =    -15581.43390900
  -Hartree energ DENC   =     -8431.34763515
  -exchange      EXHF   =         0.00000000
  -V(xc)+E(xc)   XCENC  =       687.83620172
  PAW double counting   =     24142.55821514   -23405.67577864
  entropy T*S    EENTRO =        -0.00000000
  eigenvalues    EBANDS =     -2477.49773158
  atomic energy  EATOM  =     24749.00668030
  Solvation  Ediel_sol  =         0.00000000
  ---------------------------------------------------
  free energy    TOTEN  =        53.49975156 eV

  energy without entropy =       53.49975156  energy(sigma->0) =       53.49975156


--------------------------------------------------------------------------------------------------------




----------------------------------------- Iteration    1(   7)  ---------------------------------------


    POTLOK:  cpu time    0.5640: real time    0.5615
    SETDIJ:  cpu time    2.1401: real time    2.1421
     EDDAV:  cpu time  271.0129: real time  271.1949
       DOS:  cpu time    0.0040: real time    0.0069
    CHARGE:  cpu time   11.8647: real time   11.8708
    MIXING:  cpu time    0.0160: real time    0.0168
    --------------------------------------------
      LOOP:  cpu time  285.6018: real time  287.3173

 eigenvalue-minimisations  : 38696
 total energy-change (2. order) :-0.1478478E+03  (-0.1608301E+02)
 number of electron     400.0000000 magnetization      34.3315311     34.3268255     34.3320448
 augmentation part        5.6007895 magnetization      35.3614421     35.3723325     35.3657274

 Broyden mixing:
  rms(total) = 0.28258E+01    rms(broyden)= 0.28258E+01
  rms(prec ) = 0.29813E+01
  weight for this iteration     100.00

 eigenvalues of (default mixing * dielectric matrix)
  average eigenvalue GAMMA=   0.8405
  0.8405  0.8405

 Free energy of the ion-electron system (eV)
  ---------------------------------------------------
  alpha Z        PSCENC =       370.05370877
  Ewald energy   TEWEN  =    -15581.43390900
  -Hartree energ DENC   =     -8480.66686981
  -exchange      EXHF   =         0.00000000
  -V(xc)+E(xc)   XCENC  =       590.65322167
  PAW double counting   =     26564.40928286   -25827.35167928
  entropy T*S    EENTRO =        -0.00000409
  eigenvalues    EBANDS =     -2479.01847061
  atomic energy  EATOM  =     24749.00668030
  Solvation  Ediel_sol  =         0.00000000
  ---------------------------------------------------
  free energy    TOTEN  =       -94.34803919 eV

  energy without entropy =      -94.34803510  energy(sigma->0) =      -94.34803715


--------------------------------------------------------------------------------------------------------




----------------------------------------- Iteration    1(   8)  ---------------------------------------


    POTLOK:  cpu time    0.5760: real time    0.5768
    SETDIJ:  cpu time    2.1321: real time    2.1338
     EDDAV:  cpu time  264.7125: real time  264.8901
       DOS:  cpu time    0.0040: real time    0.0035
    CHARGE:  cpu time   11.8327: real time   11.8404
    MIXING:  cpu time    0.0160: real time    0.0180
    --------------------------------------------
      LOOP:  cpu time  279.2775: real time  279.4747

 eigenvalue-minimisations  : 37568
 total energy-change (2. order) :-0.1080745E+03  (-0.6531244E+01)
 number of electron     400.0000000 magnetization      16.0755263     16.0655166     16.0724238
 augmentation part        6.6556153 magnetization      17.2558151     17.2609875     17.2607389

 Broyden mixing:
  rms(total) = 0.18348E+01    rms(broyden)= 0.18348E+01
  rms(prec ) = 0.18907E+01
  weight for this iteration     100.00

 eigenvalues of (default mixing * dielectric matrix)
  average eigenvalue GAMMA=   1.0041
  1.4068  0.9766  0.6290

 Free energy of the ion-electron system (eV)
  ---------------------------------------------------
  alpha Z        PSCENC =       370.05370877
  Ewald energy   TEWEN  =    -15581.43390900
  -Hartree energ DENC   =     -8514.03084117
  -exchange      EXHF   =         0.00000000
  -V(xc)+E(xc)   XCENC  =       528.07246996
  PAW double counting   =     28507.20088661   -27772.02092466
  entropy T*S    EENTRO =        -0.00000000
  eigenvalues    EBANDS =     -2489.27065310
  atomic energy  EATOM  =     24749.00668030
  Solvation  Ediel_sol  =         0.00000000
  ---------------------------------------------------
  free energy    TOTEN  =      -202.42258229 eV

  energy without entropy =     -202.42258229  energy(sigma->0) =     -202.42258229


--------------------------------------------------------------------------------------------------------




----------------------------------------- Iteration    1(   9)  ---------------------------------------


    POTLOK:  cpu time    0.5720: real time    0.5713
    SETDIJ:  cpu time    2.1521: real time    2.1552
     EDDAV:  cpu time  258.1961: real time  258.3696
       DOS:  cpu time    0.0040: real time    0.0031
    CHARGE:  cpu time   11.8767: real time   11.8855
    MIXING:  cpu time    0.0160: real time    0.0151
    --------------------------------------------
      LOOP:  cpu time  272.8211: real time  273.0216

 eigenvalue-minimisations  : 36360
 total energy-change (2. order) :-0.1296859E+03  (-0.1185392E+02)
 number of electron     400.0000000 magnetization      10.3758771     10.3643056     10.3699731
 augmentation part        7.8950637 magnetization      11.2034779     11.2096166     11.2110699

 Broyden mixing:
  rms(total) = 0.92185E+00    rms(broyden)= 0.92184E+00
  rms(prec ) = 0.97337E+00
  weight for this iteration     100.00

 eigenvalues of (default mixing * dielectric matrix)
  average eigenvalue GAMMA=   1.0800
  1.8280  1.1050  0.6935  0.6935

 Free energy of the ion-electron system (eV)
  ---------------------------------------------------
  alpha Z        PSCENC =       370.05370877
  Ewald energy   TEWEN  =    -15581.43390900
  -Hartree energ DENC   =     -8543.70423962
  -exchange      EXHF   =         0.00000000
  -V(xc)+E(xc)   XCENC  =       463.42927928
  PAW double counting   =     30486.41158453   -29752.08496638
  entropy T*S    EENTRO =        -0.00000000
  eigenvalues    EBANDS =     -2523.78663521
  atomic energy  EATOM  =     24749.00668030
  Solvation  Ediel_sol  =         0.00000000
  ---------------------------------------------------
  free energy    TOTEN  =      -332.10849733 eV

  energy without entropy =     -332.10849733  energy(sigma->0) =     -332.10849733


--------------------------------------------------------------------------------------------------------




----------------------------------------- Iteration    1(  10)  ---------------------------------------


    POTLOK:  cpu time    0.5680: real time    0.5703
    SETDIJ:  cpu time    2.1441: real time    2.1450
     EDDAV:  cpu time  265.7206: real time  265.8999
       DOS:  cpu time    0.0040: real time    0.0034
    CHARGE:  cpu time   11.8447: real time   11.8528
    MIXING:  cpu time    0.0160: real time    0.0178
    --------------------------------------------
      LOOP:  cpu time  280.3055: real time  280.5462

 eigenvalue-minimisations  : 37712
 total energy-change (2. order) :-0.4974167E+02  (-0.5155982E+01)
 number of electron     400.0000000 magnetization       6.3922567      6.3834383      6.3867423
 augmentation part        8.2148534 magnetization       6.9190891      6.9182577      6.9212133

 Broyden mixing:
  rms(total) = 0.67164E+00    rms(broyden)= 0.67163E+00
  rms(prec ) = 0.74731E+00
  weight for this iteration     100.00

 eigenvalues of (default mixing * dielectric matrix)
  average eigenvalue GAMMA=   1.1371
  1.7073  1.7073  0.8298  0.8298  0.6113

 Free energy of the ion-electron system (eV)
  ---------------------------------------------------
  alpha Z        PSCENC =       370.05370877
  Ewald energy   TEWEN  =    -15581.43390900
  -Hartree energ DENC   =     -8530.94559822
  -exchange      EXHF   =         0.00000000
  -V(xc)+E(xc)   XCENC  =       442.04123557
  PAW double counting   =     30849.53526263   -30113.68182022
  entropy T*S    EENTRO =        -0.00000000
  eigenvalues    EBANDS =     -2566.42572585
  atomic energy  EATOM  =     24749.00668030
  Solvation  Ediel_sol  =         0.00000000
  ---------------------------------------------------
  free energy    TOTEN  =      -381.85016602 eV

  energy without entropy =     -381.85016602  energy(sigma->0) =     -381.85016602


--------------------------------------------------------------------------------------------------------




----------------------------------------- Iteration    1(  11)  ---------------------------------------


    POTLOK:  cpu time    0.5760: real time    0.5772
    SETDIJ:  cpu time    2.1601: real time    2.1594
     EDDAV:  cpu time  269.4208: real time  269.6035
       DOS:  cpu time    0.0040: real time    0.0033
    CHARGE:  cpu time   11.8847: real time   11.8900
    MIXING:  cpu time    0.0160: real time    0.0179
    --------------------------------------------
      LOOP:  cpu time  284.0618: real time  284.3990

 eigenvalue-minimisations  : 38424
 total energy-change (2. order) :-0.2817758E+02  (-0.3866127E+01)
 number of electron     400.0000000 magnetization       3.2102045      3.2045332      3.2064105
 augmentation part        8.0845179 magnetization       3.4348729      3.4305000      3.4317335

 Broyden mixing:
  rms(total) = 0.38369E+00    rms(broyden)= 0.38368E+00
  rms(prec ) = 0.43997E+00
  weight for this iteration     100.00

 eigenvalues of (default mixing * dielectric matrix)
  average eigenvalue GAMMA=   1.2104
  2.0618  2.0618  0.9469  0.9469  0.6662  0.5789

 Free energy of the ion-electron system (eV)
  ---------------------------------------------------
  alpha Z        PSCENC =       370.05370877
  Ewald energy   TEWEN  =    -15581.43390900
  -Hartree energ DENC   =     -8478.95793198
  -exchange      EXHF   =         0.00000000
  -V(xc)+E(xc)   XCENC  =       427.93636833
  PAW double counting   =     30796.05094428   -30056.87761935
  entropy T*S    EENTRO =         0.00000000
  eigenvalues    EBANDS =     -2635.80598858
  atomic energy  EATOM  =     24749.00668030
  Solvation  Ediel_sol  =         0.00000000
  ---------------------------------------------------
  free energy    TOTEN  =      -410.02774723 eV

  energy without entropy =     -410.02774723  energy(sigma->0) =     -410.02774723


--------------------------------------------------------------------------------------------------------




----------------------------------------- Iteration    1(  12)  ---------------------------------------


    POTLOK:  cpu time    0.5640: real time    0.5643
    SETDIJ:  cpu time    2.1601: real time    2.1619
     EDDAV:  cpu time  276.2933: real time  276.4777
       DOS:  cpu time    0.0080: real time    0.0042
    CHARGE:  cpu time   11.9807: real time   11.9882
    MIXING:  cpu time    0.0160: real time    0.0174
    --------------------------------------------
      LOOP:  cpu time  291.0262: real time  291.3140

 eigenvalue-minimisations  : 39720
 total energy-change (2. order) :-0.1073798E+02  (-0.1607277E+01)
 number of electron     400.0000000 magnetization       2.4590996      2.4544858      2.4561028
 augmentation part        7.8800798 magnetization       2.5267651      2.5224364      2.5236695

 Broyden mixing:
  rms(total) = 0.25067E+00    rms(broyden)= 0.25067E+00
  rms(prec ) = 0.28887E+00
  weight for this iteration     100.00

 eigenvalues of (default mixing * dielectric matrix)
  average eigenvalue GAMMA=   1.1583
  2.0644  2.0644  1.0015  1.0015  0.6895  0.6895  0.5976

 Free energy of the ion-electron system (eV)
  ---------------------------------------------------
  alpha Z        PSCENC =       370.05370877
  Ewald energy   TEWEN  =    -15581.43390900
  -Hartree energ DENC   =     -8431.54233838
  -exchange      EXHF   =         0.00000000
  -V(xc)+E(xc)   XCENC  =       421.35941209
  PAW double counting   =     30639.31068490   -29897.43187233
  entropy T*S    EENTRO =         0.00000000
  eigenvalues    EBANDS =     -2690.08809387
  atomic energy  EATOM  =     24749.00668030
  Solvation  Ediel_sol  =         0.00000000
  ---------------------------------------------------
  free energy    TOTEN  =      -420.76572752 eV

  energy without entropy =     -420.76572752  energy(sigma->0) =     -420.76572752


--------------------------------------------------------------------------------------------------------




----------------------------------------- Iteration    1(  13)  ---------------------------------------


    POTLOK:  cpu time    0.5680: real time    0.5651
    SETDIJ:  cpu time    2.1441: real time    2.1478
     EDDAV:  cpu time  280.8015: real time  280.9858
       DOS:  cpu time    0.0040: real time    0.0041
    CHARGE:  cpu time   11.9127: real time   11.9222
    MIXING:  cpu time    0.0200: real time    0.0191
    --------------------------------------------
      LOOP:  cpu time  295.4505: real time  295.8752

 eigenvalue-minimisations  : 40576
 total energy-change (2. order) :-0.1960994E+01  (-0.2842180E+00)
 number of electron     400.0000000 magnetization       1.7471443      1.7443778      1.7454786
 augmentation part        7.8916884 magnetization       1.7969787      1.7948198      1.7955782

 Broyden mixing:
  rms(total) = 0.20719E+00    rms(broyden)= 0.20719E+00
  rms(prec ) = 0.24453E+00
  weight for this iteration     100.00

 eigenvalues of (default mixing * dielectric matrix)
  average eigenvalue GAMMA=   1.1799
  2.1892  2.1892  1.0743  1.0743  0.8598  0.8598  0.6202  0.5724

 Free energy of the ion-electron system (eV)
  ---------------------------------------------------
  alpha Z        PSCENC =       370.05370877
  Ewald energy   TEWEN  =    -15581.43390900
  -Hartree energ DENC   =     -8419.81917446
[...]
     0.0000000     0.0000000     0.0000000     0.0000000     0.0000000     0.0000000     0.0000000
     0.0000000     0.0000000     0.0000000     0.0000000     0.0000000     0.0000000     0.0000000
     0.0000000     0.0000000     0.0000000     0.0000000     0.0000000     0.0000000     0.0000000
     0.0000000     0.0000000     0.0000000     0.0000000     0.0000000     0.0000000     0.0000000

 Ion:   82  E_soc:     -0.2772084
 l=   1
     0.0000000    -0.0473718    -0.0481626
    -0.0473718     0.0000000    -0.0430843
    -0.0481626    -0.0430843     0.0000000
 l=   2
     0.0000000    -0.0000078     0.0000000    -0.0000026     0.0000197
    -0.0000078     0.0000000     0.0000038    -0.0000026     0.0000098
     0.0000000     0.0000038     0.0000000    -0.0000037     0.0000000
    -0.0000026    -0.0000026    -0.0000037     0.0000000    -0.0000019
     0.0000197     0.0000098     0.0000000    -0.0000019     0.0000000
 l=   3
     0.0000000     0.0000000     0.0000000     0.0000000     0.0000000     0.0000000     0.0000000
     0.0000000     0.0000000     0.0000000     0.0000000     0.0000000     0.0000000     0.0000000
     0.0000000     0.0000000     0.0000000     0.0000000     0.0000000     0.0000000     0.0000000
     0.0000000     0.0000000     0.0000000     0.0000000     0.0000000     0.0000000     0.0000000
     0.0000000     0.0000000     0.0000000     0.0000000     0.0000000     0.0000000     0.0000000
     0.0000000     0.0000000     0.0000000     0.0000000     0.0000000     0.0000000     0.0000000
     0.0000000     0.0000000     0.0000000     0.0000000     0.0000000     0.0000000     0.0000000

 Ion:   83  E_soc:     -0.2772084
 l=   1
     0.0000000    -0.0473718    -0.0481626
    -0.0473718     0.0000000    -0.0430843
    -0.0481626    -0.0430843     0.0000000
 l=   2
     0.0000000    -0.0000078     0.0000000    -0.0000026     0.0000197
    -0.0000078     0.0000000     0.0000038    -0.0000026     0.0000098
     0.0000000     0.0000038     0.0000000    -0.0000037     0.0000000
    -0.0000026    -0.0000026    -0.0000037     0.0000000    -0.0000019
     0.0000197     0.0000098     0.0000000    -0.0000019     0.0000000
 l=   3
     0.0000000     0.0000000     0.0000000     0.0000000     0.0000000     0.0000000     0.0000000
     0.0000000     0.0000000     0.0000000     0.0000000     0.0000000     0.0000000     0.0000000
     0.0000000     0.0000000     0.0000000     0.0000000     0.0000000     0.0000000     0.0000000
     0.0000000     0.0000000     0.0000000     0.0000000     0.0000000     0.0000000     0.0000000
     0.0000000     0.0000000     0.0000000     0.0000000     0.0000000     0.0000000     0.0000000
     0.0000000     0.0000000     0.0000000     0.0000000     0.0000000     0.0000000     0.0000000
     0.0000000     0.0000000     0.0000000     0.0000000     0.0000000     0.0000000     0.0000000

 Ion:   84  E_soc:     -0.2821911
 l=   1
     0.0000000    -0.0491127    -0.0490840
    -0.0491127     0.0000000    -0.0429237
    -0.0490840    -0.0429237     0.0000000
 l=   2
     0.0000000    -0.0000104     0.0000000    -0.0000026     0.0000238
    -0.0000104     0.0000000     0.0000064    -0.0000022     0.0000142
     0.0000000     0.0000064     0.0000000    -0.0000031     0.0000000
    -0.0000026    -0.0000022    -0.0000031     0.0000000    -0.0000011
     0.0000238     0.0000142     0.0000000    -0.0000011     0.0000000
 l=   3
     0.0000000     0.0000000     0.0000000     0.0000000     0.0000000     0.0000000     0.0000000
     0.0000000     0.0000000     0.0000000     0.0000000     0.0000000     0.0000000     0.0000000
     0.0000000     0.0000000     0.0000000     0.0000000     0.0000000     0.0000000     0.0000000
     0.0000000     0.0000000     0.0000000     0.0000000     0.0000000     0.0000000     0.0000000
     0.0000000     0.0000000     0.0000000     0.0000000     0.0000000     0.0000000     0.0000000
     0.0000000     0.0000000     0.0000000     0.0000000     0.0000000     0.0000000     0.0000000
     0.0000000     0.0000000     0.0000000     0.0000000     0.0000000     0.0000000     0.0000000

 Ion:   85  E_soc:     -0.2821911
 l=   1
     0.0000000    -0.0491127    -0.0490840
    -0.0491127     0.0000000    -0.0429237
    -0.0490840    -0.0429237     0.0000000
 l=   2
     0.0000000    -0.0000104     0.0000000    -0.0000026     0.0000238
    -0.0000104     0.0000000     0.0000064    -0.0000022     0.0000142
     0.0000000     0.0000064     0.0000000    -0.0000031     0.0000000
    -0.0000026    -0.0000022    -0.0000031     0.0000000    -0.0000011
     0.0000238     0.0000142     0.0000000    -0.0000011     0.0000000
 l=   3
     0.0000000     0.0000000     0.0000000     0.0000000     0.0000000     0.0000000     0.0000000
     0.0000000     0.0000000     0.0000000     0.0000000     0.0000000     0.0000000     0.0000000
     0.0000000     0.0000000     0.0000000     0.0000000     0.0000000     0.0000000     0.0000000
     0.0000000     0.0000000     0.0000000     0.0000000     0.0000000     0.0000000     0.0000000
     0.0000000     0.0000000     0.0000000     0.0000000     0.0000000     0.0000000     0.0000000
     0.0000000     0.0000000     0.0000000     0.0000000     0.0000000     0.0000000     0.0000000
     0.0000000     0.0000000     0.0000000     0.0000000     0.0000000     0.0000000     0.0000000

 Ion:   86  E_soc:     -0.2772084
 l=   1
     0.0000000    -0.0473718    -0.0481626
    -0.0473718     0.0000000    -0.0430843
    -0.0481626    -0.0430843     0.0000000
 l=   2
     0.0000000    -0.0000078     0.0000000    -0.0000026     0.0000197
    -0.0000078     0.0000000     0.0000038    -0.0000026     0.0000098
     0.0000000     0.0000038     0.0000000    -0.0000037     0.0000000
    -0.0000026    -0.0000026    -0.0000037     0.0000000    -0.0000019
     0.0000197     0.0000098     0.0000000    -0.0000019     0.0000000
 l=   3
     0.0000000     0.0000000     0.0000000     0.0000000     0.0000000     0.0000000     0.0000000
     0.0000000     0.0000000     0.0000000     0.0000000     0.0000000     0.0000000     0.0000000
     0.0000000     0.0000000     0.0000000     0.0000000     0.0000000     0.0000000     0.0000000
     0.0000000     0.0000000     0.0000000     0.0000000     0.0000000     0.0000000     0.0000000
     0.0000000     0.0000000     0.0000000     0.0000000     0.0000000     0.0000000     0.0000000
     0.0000000     0.0000000     0.0000000     0.0000000     0.0000000     0.0000000     0.0000000
     0.0000000     0.0000000     0.0000000     0.0000000     0.0000000     0.0000000     0.0000000

 Ion:   87  E_soc:     -0.2772084
 l=   1
     0.0000000    -0.0473718    -0.0481626
    -0.0473718     0.0000000    -0.0430843
    -0.0481626    -0.0430843     0.0000000
 l=   2
     0.0000000    -0.0000078     0.0000000    -0.0000026     0.0000197
    -0.0000078     0.0000000     0.0000038    -0.0000026     0.0000098
     0.0000000     0.0000038     0.0000000    -0.0000037     0.0000000
    -0.0000026    -0.0000026    -0.0000037     0.0000000    -0.0000019
     0.0000197     0.0000098     0.0000000    -0.0000019     0.0000000
 l=   3
     0.0000000     0.0000000     0.0000000     0.0000000     0.0000000     0.0000000     0.0000000
     0.0000000     0.0000000     0.0000000     0.0000000     0.0000000     0.0000000     0.0000000
     0.0000000     0.0000000     0.0000000     0.0000000     0.0000000     0.0000000     0.0000000
     0.0000000     0.0000000     0.0000000     0.0000000     0.0000000     0.0000000     0.0000000
     0.0000000     0.0000000     0.0000000     0.0000000     0.0000000     0.0000000     0.0000000
     0.0000000     0.0000000     0.0000000     0.0000000     0.0000000     0.0000000     0.0000000
     0.0000000     0.0000000     0.0000000     0.0000000     0.0000000     0.0000000     0.0000000

 Ion:   88  E_soc:     -0.2821911
 l=   1
     0.0000000    -0.0491127    -0.0490840
    -0.0491127     0.0000000    -0.0429237
    -0.0490840    -0.0429237     0.0000000
 l=   2
     0.0000000    -0.0000104     0.0000000    -0.0000026     0.0000238
    -0.0000104     0.0000000     0.0000064    -0.0000022     0.0000142
     0.0000000     0.0000064     0.0000000    -0.0000031     0.0000000
    -0.0000026    -0.0000022    -0.0000031     0.0000000    -0.0000011
     0.0000238     0.0000142     0.0000000    -0.0000011     0.0000000
 l=   3
     0.0000000     0.0000000     0.0000000     0.0000000     0.0000000     0.0000000     0.0000000
     0.0000000     0.0000000     0.0000000     0.0000000     0.0000000     0.0000000     0.0000000
     0.0000000     0.0000000     0.0000000     0.0000000     0.0000000     0.0000000     0.0000000
     0.0000000     0.0000000     0.0000000     0.0000000     0.0000000     0.0000000     0.0000000
     0.0000000     0.0000000     0.0000000     0.0000000     0.0000000     0.0000000     0.0000000
     0.0000000     0.0000000     0.0000000     0.0000000     0.0000000     0.0000000     0.0000000
     0.0000000     0.0000000     0.0000000     0.0000000     0.0000000     0.0000000     0.0000000

 Ion:   89  E_soc:     -0.2857214
 l=   1
     0.0000000    -0.0431249    -0.0494704
    -0.0431249     0.0000000    -0.0502835
    -0.0494704    -0.0502835     0.0000000
 l=   2
     0.0000000    -0.0000018     0.0000000    -0.0000071     0.0000174
    -0.0000018     0.0000000    -0.0000021    -0.0000023    -0.0000017
     0.0000000    -0.0000021     0.0000000     0.0000045     0.0000000
    -0.0000071    -0.0000023     0.0000045     0.0000000     0.0000111
     0.0000174    -0.0000017     0.0000000     0.0000111     0.0000000
 l=   3
     0.0000000     0.0000000     0.0000000     0.0000000     0.0000000     0.0000000     0.0000000
     0.0000000     0.0000000     0.0000000     0.0000000     0.0000000     0.0000000     0.0000000
     0.0000000     0.0000000     0.0000000     0.0000000     0.0000000     0.0000000     0.0000000
     0.0000000     0.0000000     0.0000000     0.0000000     0.0000000     0.0000000     0.0000000
     0.0000000     0.0000000     0.0000000     0.0000000     0.0000000     0.0000000     0.0000000
     0.0000000     0.0000000     0.0000000     0.0000000     0.0000000     0.0000000     0.0000000
     0.0000000     0.0000000     0.0000000     0.0000000     0.0000000     0.0000000     0.0000000

 Ion:   90  E_soc:     -0.2857391
 l=   1
     0.0000000    -0.0431253    -0.0494759
    -0.0431253     0.0000000    -0.0502865
    -0.0494759    -0.0502865     0.0000000
 l=   2
     0.0000000    -0.0000018     0.0000000    -0.0000071     0.0000174
    -0.0000018     0.0000000    -0.0000021    -0.0000023    -0.0000017
     0.0000000    -0.0000021     0.0000000     0.0000045     0.0000000
    -0.0000071    -0.0000023     0.0000045     0.0000000     0.0000111
     0.0000174    -0.0000017     0.0000000     0.0000111     0.0000000
 l=   3
     0.0000000     0.0000000     0.0000000     0.0000000     0.0000000     0.0000000     0.0000000
     0.0000000     0.0000000     0.0000000     0.0000000     0.0000000     0.0000000     0.0000000
     0.0000000     0.0000000     0.0000000     0.0000000     0.0000000     0.0000000     0.0000000
     0.0000000     0.0000000     0.0000000     0.0000000     0.0000000     0.0000000     0.0000000
     0.0000000     0.0000000     0.0000000     0.0000000     0.0000000     0.0000000     0.0000000
     0.0000000     0.0000000     0.0000000     0.0000000     0.0000000     0.0000000     0.0000000
     0.0000000     0.0000000     0.0000000     0.0000000     0.0000000     0.0000000     0.0000000

 Ion:   91  E_soc:     -0.2857391
 l=   1
     0.0000000    -0.0431253    -0.0494759
    -0.0431253     0.0000000    -0.0502865
    -0.0494759    -0.0502865     0.0000000
 l=   2
     0.0000000    -0.0000018     0.0000000    -0.0000071     0.0000174
    -0.0000018     0.0000000    -0.0000021    -0.0000023    -0.0000017
     0.0000000    -0.0000021     0.0000000     0.0000045     0.0000000
    -0.0000071    -0.0000023     0.0000045     0.0000000     0.0000111
     0.0000174    -0.0000017     0.0000000     0.0000111     0.0000000
 l=   3
     0.0000000     0.0000000     0.0000000     0.0000000     0.0000000     0.0000000     0.0000000
     0.0000000     0.0000000     0.0000000     0.0000000     0.0000000     0.0000000     0.0000000
     0.0000000     0.0000000     0.0000000     0.0000000     0.0000000     0.0000000     0.0000000
     0.0000000     0.0000000     0.0000000     0.0000000     0.0000000     0.0000000     0.0000000
     0.0000000     0.0000000     0.0000000     0.0000000     0.0000000     0.0000000     0.0000000
     0.0000000     0.0000000     0.0000000     0.0000000     0.0000000     0.0000000     0.0000000
     0.0000000     0.0000000     0.0000000     0.0000000     0.0000000     0.0000000     0.0000000

 Ion:   92  E_soc:     -0.2857214
 l=   1
     0.0000000    -0.0431249    -0.0494704
    -0.0431249     0.0000000    -0.0502835
    -0.0494704    -0.0502835     0.0000000
 l=   2
     0.0000000    -0.0000018     0.0000000    -0.0000071     0.0000174
    -0.0000018     0.0000000    -0.0000021    -0.0000023    -0.0000017
     0.0000000    -0.0000021     0.0000000     0.0000045     0.0000000
    -0.0000071    -0.0000023     0.0000045     0.0000000     0.0000111
     0.0000174    -0.0000017     0.0000000     0.0000111     0.0000000
 l=   3
     0.0000000     0.0000000     0.0000000     0.0000000     0.0000000     0.0000000     0.0000000
     0.0000000     0.0000000     0.0000000     0.0000000     0.0000000     0.0000000     0.0000000
     0.0000000     0.0000000     0.0000000     0.0000000     0.0000000     0.0000000     0.0000000
     0.0000000     0.0000000     0.0000000     0.0000000     0.0000000     0.0000000     0.0000000
     0.0000000     0.0000000     0.0000000     0.0000000     0.0000000     0.0000000     0.0000000
     0.0000000     0.0000000     0.0000000     0.0000000     0.0000000     0.0000000     0.0000000
     0.0000000     0.0000000     0.0000000     0.0000000     0.0000000     0.0000000     0.0000000

 Ion:   93  E_soc:     -0.2857214
 l=   1
     0.0000000    -0.0431249    -0.0494704
    -0.0431249     0.0000000    -0.0502835
    -0.0494704    -0.0502835     0.0000000
 l=   2
     0.0000000    -0.0000018     0.0000000    -0.0000071     0.0000174
    -0.0000018     0.0000000    -0.0000021    -0.0000023    -0.0000017
     0.0000000    -0.0000021     0.0000000     0.0000045     0.0000000
    -0.0000071    -0.0000023     0.0000045     0.0000000     0.0000111
     0.0000174    -0.0000017     0.0000000     0.0000111     0.0000000
 l=   3
     0.0000000     0.0000000     0.0000000     0.0000000     0.0000000     0.0000000     0.0000000
     0.0000000     0.0000000     0.0000000     0.0000000     0.0000000     0.0000000     0.0000000
     0.0000000     0.0000000     0.0000000     0.0000000     0.0000000     0.0000000     0.0000000
     0.0000000     0.0000000     0.0000000     0.0000000     0.0000000     0.0000000     0.0000000
     0.0000000     0.0000000     0.0000000     0.0000000     0.0000000     0.0000000     0.0000000
     0.0000000     0.0000000     0.0000000     0.0000000     0.0000000     0.0000000     0.0000000
     0.0000000     0.0000000     0.0000000     0.0000000     0.0000000     0.0000000     0.0000000

 Ion:   94  E_soc:     -0.2857391
 l=   1
     0.0000000    -0.0431253    -0.0494759
    -0.0431253     0.0000000    -0.0502865
    -0.0494759    -0.0502865     0.0000000
 l=   2
     0.0000000    -0.0000018     0.0000000    -0.0000071     0.0000174
    -0.0000018     0.0000000    -0.0000021    -0.0000023    -0.0000017
     0.0000000    -0.0000021     0.0000000     0.0000045     0.0000000
    -0.0000071    -0.0000023     0.0000045     0.0000000     0.0000111
     0.0000174    -0.0000017     0.0000000     0.0000111     0.0000000
 l=   3
     0.0000000     0.0000000     0.0000000     0.0000000     0.0000000     0.0000000     0.0000000
     0.0000000     0.0000000     0.0000000     0.0000000     0.0000000     0.0000000     0.0000000
     0.0000000     0.0000000     0.0000000     0.0000000     0.0000000     0.0000000     0.0000000
     0.0000000     0.0000000     0.0000000     0.0000000     0.0000000     0.0000000     0.0000000
     0.0000000     0.0000000     0.0000000     0.0000000     0.0000000     0.0000000     0.0000000
     0.0000000     0.0000000     0.0000000     0.0000000     0.0000000     0.0000000     0.0000000
     0.0000000     0.0000000     0.0000000     0.0000000     0.0000000     0.0000000     0.0000000

 Ion:   95  E_soc:     -0.2857391
 l=   1
     0.0000000    -0.0431253    -0.0494759
    -0.0431253     0.0000000    -0.0502865
    -0.0494759    -0.0502865     0.0000000
 l=   2
     0.0000000    -0.0000018     0.0000000    -0.0000071     0.0000174
    -0.0000018     0.0000000    -0.0000021    -0.0000023    -0.0000017
     0.0000000    -0.0000021     0.0000000     0.0000045     0.0000000
    -0.0000071    -0.0000023     0.0000045     0.0000000     0.0000111
     0.0000174    -0.0000017     0.0000000     0.0000111     0.0000000
 l=   3
     0.0000000     0.0000000     0.0000000     0.0000000     0.0000000     0.0000000     0.0000000
     0.0000000     0.0000000     0.0000000     0.0000000     0.0000000     0.0000000     0.0000000
     0.0000000     0.0000000     0.0000000     0.0000000     0.0000000     0.0000000     0.0000000
     0.0000000     0.0000000     0.0000000     0.0000000     0.0000000     0.0000000     0.0000000
     0.0000000     0.0000000     0.0000000     0.0000000     0.0000000     0.0000000     0.0000000
     0.0000000     0.0000000     0.0000000     0.0000000     0.0000000     0.0000000     0.0000000
     0.0000000     0.0000000     0.0000000     0.0000000     0.0000000     0.0000000     0.0000000

 Ion:   96  E_soc:     -0.2857214
 l=   1
     0.0000000    -0.0431249    -0.0494704
    -0.0431249     0.0000000    -0.0502835
    -0.0494704    -0.0502835     0.0000000
 l=   2
     0.0000000    -0.0000018     0.0000000    -0.0000071     0.0000174
    -0.0000018     0.0000000    -0.0000021    -0.0000023    -0.0000017
     0.0000000    -0.0000021     0.0000000     0.0000045     0.0000000
    -0.0000071    -0.0000023     0.0000045     0.0000000     0.0000111
     0.0000174    -0.0000017     0.0000000     0.0000111     0.0000000
 l=   3
     0.0000000     0.0000000     0.0000000     0.0000000     0.0000000     0.0000000     0.0000000
     0.0000000     0.0000000     0.0000000     0.0000000     0.0000000     0.0000000     0.0000000
     0.0000000     0.0000000     0.0000000     0.0000000     0.0000000     0.0000000     0.0000000
     0.0000000     0.0000000     0.0000000     0.0000000     0.0000000     0.0000000     0.0000000
     0.0000000     0.0000000     0.0000000     0.0000000     0.0000000     0.0000000     0.0000000
     0.0000000     0.0000000     0.0000000     0.0000000     0.0000000     0.0000000     0.0000000
     0.0000000     0.0000000     0.0000000     0.0000000     0.0000000     0.0000000     0.0000000

 total amount of memory used by VASP on root node   392927. kBytes
========================================================================

   base      :      30000. kBytes
   nonl-proj :      73667. kBytes
   fftplans  :      22714. kBytes
   grid      :      35610. kBytes
   one-center:        248. kBytes
   wavefun   :     230688. kBytes
 
  
  
 General timing and accounting informations for this job:
 ========================================================
  
                  Total CPU time used (sec):     8923.529
                            User time (sec):     8910.001
                          System time (sec):       13.529
                         Elapsed time (sec):     8950.382
  
                   Maximum memory used (kb):      412532.
                   Average memory used (kb):           0.
  
                          Minor page faults:       608330
                          Major page faults:            0
                 Voluntary context switches:        14818
