       N       E                     dE             d eps       ncg     rms          ort
DAV:   1     0.638506055837E+03    0.63851E+03   -0.43412E+04 16192   0.188E+03
DAV:   2     0.944774149621E+02   -0.54403E+03   -0.50423E+03 16192   0.626E+02
DAV:   3     0.308008324571E+02   -0.63677E+02   -0.60526E+02 16192   0.157E+02
DAV:   4     0.279054122588E+02   -0.28954E+01   -0.28895E+01 16192   0.328E+01
DAV:   5     0.278530174107E+02   -0.52395E-01   -0.52387E-01 16192   0.370E+00
SDA:   6    -0.459153645853E+01   -0.32445E+02   -0.52387E-01 16192   0.714E+01 0.000E+00
CGA:   7    -0.579789753450E+01   -0.12064E+01   -0.12152E+01 16192   0.319E+00 0.855E-01
CGA:   8    -0.596841721977E+01   -0.17052E+00   -0.16003E+00 16192   0.967E-01 0.379E-01
CGA:   9    -0.601313105176E+01   -0.44714E-01   -0.44044E-01 16192   0.294E-01 0.323E-02
CGA:  10    -0.602375328852E+01   -0.10622E-01   -0.10526E-01 16192   0.725E-02 0.648E-03
CGA:  11    -0.602574635554E+01   -0.19931E-02   -0.19928E-02 16192   0.877E-03 0.721E-05
CGA:  12    -0.602612609044E+01   -0.37973E-03   -0.38281E-03 16192   0.253E-03-0.152E-04
CGA:  13    -0.602622657475E+01   -0.10048E-03   -0.10121E-03 16192   0.664E-04-0.429E-05
CGA:  14    -0.602625205619E+01   -0.25481E-04   -0.25867E-04 16192   0.154E-04-0.261E-05
CGA:  15    -0.602625753347E+01   -0.54773E-05   -0.57089E-05 16192   0.449E-05-0.178E-05
CGA:  16    -0.602625892099E+01   -0.13875E-05   -0.14124E-05 16192   0.928E-06-0.259E-06
CGA:  17    -0.602625929189E+01   -0.37090E-06   -0.41801E-06 16192   0.473E-06-0.240E-06
   1 F= -.60262593E+01 E0= -.60262593E+01  d E =-.380700E-13
