 running on   96 total cores
 distrk:  each k-point on   24 cores,    4 groups
 distr:  one band on    6 cores,    4 groups
 using from now: INCAR     
 vasp.5.4.1 24Jun15 (build Nov 25 2015 16:01:35) complex                        
  
 POSCAR found type information on POSCAR  Cd Te
 POSCAR found :  2 types and       2 ions
 scaLAPACK will be used

 ----------------------------------------------------------------------------- 
|                                                                             |
|           W    W    AA    RRRRR   N    N  II  N    N   GGGG   !!!           |
|           W    W   A  A   R    R  NN   N  II  NN   N  G    G  !!!           |
|           W    W  A    A  R    R  N N  N  II  N N  N  G       !!!           |
|           W WW W  AAAAAA  RRRRR   N  N N  II  N  N N  G  GGG   !            |
|           WW  WW  A    A  R   R   N   NN  II  N   NN  G    G                |
|           W    W  A    A  R    R  N    N  II  N    N   GGGG   !!!           |
|                                                                             |
|      You have enabled k-point parallelism (KPAR>1).                         |
|      This developmental code was originally  written by Paul Kent at ORNL,  |
|      and carefully double checked in Vienna.                                |
|      GW as well as linear response parallelism added by Martijn Marsman     |
|      and Georg Kresse.                                                      |
|      Carefully verify results versus KPAR=1.                                |
|      Report problems to Paul Kent and Vienna.                               |
|                                                                             |
 ----------------------------------------------------------------------------- 


 ----------------------------------------------------------------------------- 
|                                                                             |
|           W    W    AA    RRRRR   N    N  II  N    N   GGGG   !!!           |
|           W    W   A  A   R    R  NN   N  II  NN   N  G    G  !!!           |
|           W    W  A    A  R    R  N N  N  II  N N  N  G       !!!           |
|           W WW W  AAAAAA  RRRRR   N  N N  II  N  N N  G  GGG   !            |
|           WW  WW  A    A  R   R   N   NN  II  N   NN  G    G                |
|           W    W  A    A  R    R  N    N  II  N    N   GGGG   !!!           |
|                                                                             |
|      You have selected ISYM=2 for HF type calculation. This will symmetrize |
|      the charge density but not the exchange potential.                     |
|      I suggest to use ISYM=3 instead. This uses symmetry to obtain          |
|      the orbitals at all k-points in the Brillouine zone, but does not      |
|      apply symmetry to the Hartree potential directly.                      |
|      The resultant charge might have lower symmetry than the crystal,       |
|      but at least, Hartree and exchange are fully compatible.               |
|                                                                             |
 ----------------------------------------------------------------------------- 

 LDA part: xc-table for Pade appr. of Perdew

 ----------------------------------------------------------------------------- 
|                                                                             |
|           W    W    AA    RRRRR   N    N  II  N    N   GGGG   !!!           |
|           W    W   A  A   R    R  NN   N  II  NN   N  G    G  !!!           |
|           W    W  A    A  R    R  N N  N  II  N N  N  G       !!!           |
|           W WW W  AAAAAA  RRRRR   N  N N  II  N  N N  G  GGG   !            |
|           WW  WW  A    A  R   R   N   NN  II  N   NN  G    G                |
|           W    W  A    A  R    R  N    N  II  N    N   GGGG   !!!           |
|                                                                             |
|      Your generating k-point grid is not commensurate to the symmetry       |
|      of the lattice.  This can cause   slow convergence with respect        |
|      to k-points for HF type calculations                                   |
|      suggested SOLUTIONS:                                                   |
|       ) if not already the case, use automatic k-point generation           |
|       ) shift your grid to Gamma (G) (e.g. required for hex or fcc lattice) |
|                                                                             |
 ----------------------------------------------------------------------------- 

 POSCAR, INCAR and KPOINTS ok, starting setup
 FFT: planning ...
 WAVECAR not read
 WARNING: random wavefunctions but no delay for mixing, default for NELMDL
 entering main loop
       N       E                     dE             d eps       ncg     rms          ort
DAV:   1     0.638506055837E+03    0.63851E+03   -0.43412E+04 16192   0.188E+03
DAV:   2     0.944774149621E+02   -0.54403E+03   -0.50423E+03 16192   0.626E+02
DAV:   3     0.308008324571E+02   -0.63677E+02   -0.60526E+02 16192   0.157E+02
DAV:   4     0.279054122588E+02   -0.28954E+01   -0.28895E+01 16192   0.328E+01
DAV:   5     0.278530174107E+02   -0.52395E-01   -0.52387E-01 16192   0.370E+00
 gam= 0.000 g(H,U,f)=  0.578E+01 0.136E+01 0.257E-09 ort(H,U,f) = 0.000E+00 0.000E+00 0.000E+00
SDA:   6    -0.459153645853E+01   -0.32445E+02   -0.52387E-01 16192   0.714E+01 0.000E+00
 gam= 0.000 trial= 0.400  step= 0.341 mean= 0.400
 gam= 0.045 g(H,U,f)=  0.109E+00 0.210E+00 0.267E-15 ort(H,U,f) =-0.368E+00 0.454E+00 0.350E-15
CGA:   7    -0.579789753450E+01   -0.12064E+01   -0.12152E+01 16192   0.319E+00 0.855E-01
 gam= 0.045 trial= 0.397  step= 0.991 mean= 0.397
 gam= 0.303 g(H,U,f)=  0.632E-01 0.336E-01 0.400E-44 ort(H,U,f) =-0.393E-01 0.772E-01 0.805E-44
CGA:   8    -0.596841721977E+01   -0.17052E+00   -0.16003E+00 16192   0.967E-01 0.379E-01
 gam= 0.303 trial= 0.427  step= 0.814 mean= 0.427
 gam= 0.304 g(H,U,f)=  0.209E-01 0.852E-02 0.536E-28 ort(H,U,f) =-0.229E-01 0.262E-01 0.184E-27
CGA:   9    -0.601313105176E+01   -0.44714E-01   -0.44044E-01 16192   0.294E-01 0.323E-02
 gam= 0.304 trial= 0.446  step= 0.692 mean= 0.446
 gam= 0.246 g(H,U,f)=  0.636E-02 0.893E-03 0.114E-19 ort(H,U,f) =-0.303E-02 0.368E-02 0.546E-20
CGA:  10    -0.602375328852E+01   -0.10622E-01   -0.10526E-01 16192   0.725E-02 0.648E-03
 gam= 0.246 trial= 0.458  step= 0.538 mean= 0.458
 gam= 0.121 g(H,U,f)=  0.614E-03 0.263E-03 0.513E-61 ort(H,U,f) =-0.994E-03 0.100E-02 0.239E-60
CGA:  11    -0.602574635554E+01   -0.19931E-02   -0.19928E-02 16192   0.877E-03 0.721E-05
 gam= 0.121 trial= 0.462  step= 0.872 mean= 0.462
 gam= 0.289 g(H,U,f)=  0.192E-03 0.608E-04 0.758E-19 ort(H,U,f) =-0.181E-03 0.166E-03 0.138E-18
CGA:  12    -0.602612609044E+01   -0.37973E-03   -0.38281E-03 16192   0.253E-03-0.152E-04
 gam= 0.289 trial= 0.483  step= 0.814 mean= 0.483
 gam= 0.262 g(H,U,f)=  0.536E-04 0.128E-04 0.462E-21 ort(H,U,f) =-0.497E-04 0.454E-04 0.136E-20
CGA:  13    -0.602622657475E+01   -0.10048E-03   -0.10121E-03 16192   0.664E-04-0.429E-05
 gam= 0.262 trial= 0.499  step= 0.792 mean= 0.499
 gam= 0.231 g(H,U,f)=  0.128E-04 0.255E-05 0.259E-22 ort(H,U,f) =-0.123E-04 0.972E-05 0.858E-22
CGA:  14    -0.602625205619E+01   -0.25481E-04   -0.25867E-04 16192   0.154E-04-0.261E-05
 gam= 0.231 trial= 0.514  step= 0.774 mean= 0.514
 gam= 0.292 g(H,U,f)=  0.380E-05 0.689E-06 0.326E-23 ort(H,U,f) =-0.368E-05 0.190E-05 0.140E-22
CGA:  15    -0.602625753347E+01   -0.54773E-05   -0.57089E-05 16192   0.449E-05-0.178E-05
 gam= 0.292 trial= 0.527  step= 0.711 mean= 0.527
 gam= 0.207 g(H,U,f)=  0.740E-06 0.188E-06 0.849E-24 ort(H,U,f) =-0.738E-06 0.479E-06 0.406E-23
CGA:  16    -0.602625892099E+01   -0.13875E-05   -0.14124E-05 16192   0.928E-06-0.259E-06
 gam= 0.207 trial= 0.536  step= 0.956 mean= 0.536
 gam= 0.509 g(H,U,f)=  0.436E-06 0.372E-07 0.126E-24 ort(H,U,f) =-0.348E-06 0.108E-06-0.232E-24
CGA:  17    -0.602625929189E+01   -0.37090E-06   -0.41801E-06 16192   0.473E-06-0.240E-06
 gam= 0.509 trial= 0.557  step= 0.485 mean= 0.557
   1 F= -.60262593E+01 E0= -.60262593E+01  d E =-.380700E-13
 writing wavefunctions
Application 21548628 resources: utime ~914018s, stime ~2515s, Rss ~354360, inblocks ~691458, outblocks ~1818869
