  96  96   0   0
  0.2080188E+02  0.1257760E-08  0.1245754E-08  0.1274818E-08  0.5000000E-15
  1.000000000000000E-004
  CAR 
 MAPbI3-Cubic                            
      8.78785362    -18.78638265  301      1.02111041      1.00000000
    -18.786  0.0000E+00  0.0000E+00
    -18.694  0.0000E+00  0.0000E+00
    -18.603  0.0000E+00  0.0000E+00
    -18.511  0.0000E+00  0.0000E+00
    -18.419  0.0000E+00  0.0000E+00
    -18.327  0.0000E+00  0.0000E+00
    -18.235  0.0000E+00  0.0000E+00
    -18.143  0.0000E+00  0.0000E+00
    -18.051  0.0000E+00  0.0000E+00
    -17.959  0.0000E+00  0.0000E+00
    -17.867  0.0000E+00  0.0000E+00
    -17.775  0.0000E+00  0.0000E+00
    -17.683  0.0000E+00  0.0000E+00
    -17.591  0.0000E+00  0.0000E+00
    -17.500  0.0000E+00  0.8000E+01
    -17.408  0.0000E+00  0.8000E+01
    -17.316  0.3964E-02  0.8000E+01
    -17.224  0.0000E+00  0.1600E+02
    -17.132  0.0000E+00  0.1600E+02
    -17.040  0.0000E+00  0.1600E+02
    -16.948  0.0000E+00  0.1600E+02
    -16.856  0.0000E+00  0.1600E+02
    -16.764  0.0000E+00  0.1600E+02
    -16.672  0.0000E+00  0.1600E+02
    -16.580  0.0000E+00  0.1600E+02
    -16.489  0.0000E+00  0.1600E+02
    -16.397  0.0000E+00  0.1600E+02
    -16.305  0.0000E+00  0.1600E+02
    -16.213  0.0000E+00  0.1600E+02
    -16.121  0.0000E+00  0.1600E+02
    -16.029  0.0000E+00  0.1600E+02
    -15.937  0.0000E+00  0.1600E+02
    -15.845  0.0000E+00  0.1600E+02
    -15.753  0.0000E+00  0.1600E+02
    -15.661  0.0000E+00  0.1600E+02
    -15.569  0.0000E+00  0.1600E+02
    -15.477  0.0000E+00  0.1600E+02
    -15.386  0.0000E+00  0.1600E+02
    -15.294  0.7266E+02  0.2268E+02
    -15.202  0.0000E+00  0.9600E+02
    -15.110  0.0000E+00  0.9600E+02
    -15.018  0.0000E+00  0.9600E+02
    -14.926  0.0000E+00  0.9600E+02
    -14.834  0.0000E+00  0.9600E+02
    -14.742  0.0000E+00  0.9600E+02
    -14.650  0.0000E+00  0.9600E+02
    -14.558  0.0000E+00  0.9600E+02
    -14.466  0.0000E+00  0.9600E+02
    -14.375  0.0000E+00  0.9600E+02
    -14.283  0.0000E+00  0.9600E+02
    -14.191  0.0000E+00  0.9600E+02
    -14.099  0.0000E+00  0.9600E+02
    -14.007  0.0000E+00  0.9600E+02
    -13.915  0.0000E+00  0.9600E+02
    -13.823  0.0000E+00  0.9600E+02
    -13.731  0.0000E+00  0.9600E+02
    -13.639  0.0000E+00  0.9600E+02
    -13.547  0.0000E+00  0.9600E+02
    -13.455  0.0000E+00  0.9600E+02
    -13.363  0.0000E+00  0.9600E+02
    -13.272  0.0000E+00  0.9600E+02
    -13.180  0.0000E+00  0.9600E+02
    -13.088  0.0000E+00  0.9600E+02
    -12.996  0.0000E+00  0.9600E+02
    -12.904  0.0000E+00  0.9600E+02
    -12.812  0.0000E+00  0.9600E+02
    -12.720  0.0000E+00  0.9600E+02
    -12.628  0.0000E+00  0.9600E+02
    -12.536  0.0000E+00  0.9600E+02
    -12.444  0.0000E+00  0.9600E+02
    -12.352  0.0000E+00  0.9600E+02
    -12.260  0.0000E+00  0.9600E+02
    -12.169  0.0000E+00  0.9600E+02
    -12.077  0.0000E+00  0.9600E+02
    -11.985  0.0000E+00  0.9600E+02
    -11.893  0.0000E+00  0.9600E+02
    -11.801  0.0000E+00  0.9600E+02
    -11.709  0.0000E+00  0.9600E+02
    -11.617  0.0000E+00  0.9600E+02
    -11.525  0.0000E+00  0.9600E+02
    -11.433  0.0000E+00  0.9600E+02
    -11.341  0.0000E+00  0.9600E+02
    -11.249  0.0000E+00  0.9600E+02
    -11.158  0.0000E+00  0.9600E+02
    -11.066  0.0000E+00  0.9600E+02
    -10.974  0.0000E+00  0.1040E+03
    -10.882  0.0000E+00  0.1040E+03
    -10.790  0.1292E+02  0.1111E+03
    -10.698  0.1371E+01  0.1123E+03
    -10.606  0.1260E+02  0.1166E+03
    -10.514  0.1233E+02  0.1224E+03
    -10.422  0.0000E+00  0.1280E+03
    -10.330  0.4331E+01  0.1286E+03
    -10.238  0.2584E-01  0.1360E+03
    -10.146  0.1014E+02  0.1466E+03
    -10.055  0.1825E+02  0.1593E+03
     -9.963  0.0000E+00  0.1600E+03
     -9.871  0.0000E+00  0.1600E+03
     -9.779  0.0000E+00  0.1600E+03
     -9.687  0.0000E+00  0.1600E+03
     -9.595  0.0000E+00  0.1600E+03
     -9.503  0.0000E+00  0.1600E+03
     -9.411  0.0000E+00  0.1600E+03
     -9.319  0.0000E+00  0.1600E+03
     -9.227  0.0000E+00  0.1600E+03
     -9.135  0.0000E+00  0.1600E+03
     -9.043  0.0000E+00  0.1600E+03
     -8.952  0.0000E+00  0.1600E+03
     -8.860  0.0000E+00  0.1600E+03
     -8.768  0.0000E+00  0.1600E+03
     -8.676  0.0000E+00  0.1600E+03
     -8.584  0.0000E+00  0.1600E+03
     -8.492  0.0000E+00  0.1600E+03
     -8.400  0.0000E+00  0.1600E+03
     -8.308  0.0000E+00  0.1600E+03
     -8.216  0.0000E+00  0.1600E+03
     -8.124  0.0000E+00  0.1600E+03
     -8.032  0.0000E+00  0.1600E+03
     -7.941  0.0000E+00  0.1600E+03
     -7.849  0.0000E+00  0.1600E+03
     -7.757  0.0000E+00  0.1600E+03
     -7.665  0.0000E+00  0.1600E+03
     -7.573  0.0000E+00  0.1600E+03
     -7.481  0.0000E+00  0.1600E+03
     -7.389  0.0000E+00  0.1600E+03
     -7.297  0.0000E+00  0.1600E+03
     -7.205  0.1132E+02  0.1610E+03
     -7.113  0.0000E+00  0.1680E+03
     -7.021  0.2024E+02  0.1761E+03
     -6.929  0.8059E+00  0.1920E+03
     -6.838  0.8059E+00  0.1921E+03
     -6.746  0.0000E+00  0.1925E+03
     -6.654  0.3301E-03  0.1936E+03
     -6.562  0.3224E+01  0.1948E+03
     -6.470  0.9133E+01  0.1971E+03
     -6.378  0.7876E-12  0.1991E+03
     -6.286  0.1897E-03  0.2003E+03
     -6.194  0.1600E+01  0.2030E+03
     -6.102  0.0000E+00  0.2047E+03
     -6.010  0.8059E+00  0.2063E+03
     -5.918  0.3224E+01  0.2075E+03
     -5.826  0.1612E+01  0.2079E+03
     -5.735  0.0000E+00  0.2080E+03
     -5.643  0.0000E+00  0.2080E+03
     -5.551  0.0000E+00  0.2080E+03
     -5.459  0.0000E+00  0.2160E+03
     -5.367  0.0000E+00  0.2160E+03
     -5.275  0.0000E+00  0.2160E+03
     -5.183  0.0000E+00  0.2160E+03
     -5.091  0.8378E+01  0.2224E+03
     -4.999  0.0000E+00  0.2240E+03
     -4.907  0.0000E+00  0.2240E+03
     -4.815  0.0000E+00  0.2240E+03
     -4.724  0.0000E+00  0.2240E+03
     -4.632  0.0000E+00  0.2240E+03
     -4.540  0.0000E+00  0.2240E+03
     -4.448  0.0000E+00  0.2240E+03
     -4.356  0.0000E+00  0.2240E+03
     -4.264  0.0000E+00  0.2240E+03
     -4.172  0.0000E+00  0.2240E+03
     -4.080  0.0000E+00  0.2240E+03
     -3.988  0.0000E+00  0.2240E+03
     -3.896  0.0000E+00  0.2240E+03
     -3.804  0.0000E+00  0.2240E+03
     -3.712  0.0000E+00  0.2240E+03
     -3.621  0.0000E+00  0.2240E+03
     -3.529  0.0000E+00  0.2240E+03
     -3.437  0.7462E+01  0.2300E+03
     -3.345  0.2105E+02  0.2446E+03
     -3.253  0.1878E+01  0.2486E+03
     -3.161  0.0000E+00  0.2560E+03
     -3.069  0.0000E+00  0.2560E+03
     -2.977  0.0000E+00  0.2560E+03
     -2.885  0.0000E+00  0.2560E+03
     -2.793  0.0000E+00  0.2560E+03
     -2.701  0.0000E+00  0.2560E+03
     -2.609  0.0000E+00  0.2560E+03
     -2.518  0.0000E+00  0.2560E+03
     -2.426  0.0000E+00  0.2560E+03
     -2.334  0.0000E+00  0.2560E+03
     -2.242  0.0000E+00  0.2560E+03
     -2.150  0.0000E+00  0.2560E+03
     -2.058  0.2016E-03  0.2561E+03
     -1.966  0.3224E+01  0.2583E+03
     -1.874  0.0000E+00  0.2587E+03
     -1.782  0.2630E-03  0.2587E+03
     -1.690  0.1557E+01  0.2605E+03
     -1.598  0.4835E+01  0.2657E+03
     -1.507  0.1202E-01  0.2683E+03
     -1.415  0.7236E+01  0.2713E+03
     -1.323  0.3224E+01  0.2744E+03
     -1.231  0.0000E+00  0.2779E+03
     -1.139  0.0000E+00  0.2796E+03
     -1.047  0.0000E+00  0.2800E+03
     -0.955  0.0000E+00  0.2807E+03
     -0.863  0.1112E+02  0.2844E+03
     -0.771  0.2377E+01  0.2904E+03
     -0.679  0.4875E+01  0.2944E+03
     -0.587  0.4844E+01  0.3007E+03
     -0.495  0.1612E+01  0.3037E+03
     -0.404  0.8582E+01  0.3083E+03
     -0.312  0.1612E+01  0.3127E+03
     -0.220  0.8075E+01  0.3182E+03
     -0.128  0.9626E+01  0.3253E+03
     -0.036  0.4093E+01  0.3301E+03
      0.056  0.7964E+01  0.3390E+03
      0.148  0.6490E+01  0.3474E+03
      0.240  0.1302E+02  0.3562E+03
      0.332  0.1441E+02  0.3655E+03
      0.424  0.6765E+01  0.3724E+03
      0.516  0.7319E+01  0.3819E+03
      0.607  0.4835E+01  0.3910E+03
      0.699  0.2812E+01  0.3962E+03
      0.791  0.1612E+01  0.3992E+03
      0.883  0.1020E-04  0.3998E+03
      0.975  0.0000E+00  0.3999E+03
      1.067  0.0000E+00  0.4000E+03
      1.159  0.0000E+00  0.4000E+03
      1.251  0.0000E+00  0.4000E+03
      1.343  0.0000E+00  0.4000E+03
      1.435  0.0000E+00  0.4000E+03
      1.527  0.0000E+00  0.4000E+03
      1.619  0.0000E+00  0.4000E+03
      1.710  0.0000E+00  0.4000E+03
      1.802  0.0000E+00  0.4000E+03
      1.894  0.0000E+00  0.4000E+03
      1.986  0.0000E+00  0.4000E+03
      2.078  0.0000E+00  0.4000E+03
      2.170  0.0000E+00  0.4000E+03
      2.262  0.0000E+00  0.4000E+03
      2.354  0.0000E+00  0.4000E+03
      2.446  0.0000E+00  0.4000E+03
      2.538  0.0000E+00  0.4000E+03
      2.630  0.0000E+00  0.4000E+03
      2.722  0.0000E+00  0.4000E+03
      2.813  0.0000E+00  0.4000E+03
      2.905  0.1684E-12  0.4000E+03
      2.997  0.0000E+00  0.4007E+03
      3.089  0.0000E+00  0.4011E+03
      3.181  0.2098E+01  0.4025E+03
      3.273  0.1916E+01  0.4040E+03
      3.365  0.6564E+00  0.4063E+03
      3.457  0.1661E-03  0.4074E+03
      3.549  0.0000E+00  0.4081E+03
      3.641  0.0000E+00  0.4090E+03
      3.733  0.3212E+01  0.4108E+03
      3.824  0.1956E+00  0.4126E+03
      3.916  0.7477E+00  0.4146E+03
      4.008  0.6423E+01  0.4179E+03
      4.100  0.2753E+01  0.4220E+03
      4.192  0.0000E+00  0.4233E+03
      4.284  0.0000E+00  0.4239E+03
      4.376  0.0000E+00  0.4240E+03
      4.468  0.0000E+00  0.4240E+03
      4.560  0.0000E+00  0.4240E+03
      4.652  0.1022E-02  0.4240E+03
      4.744  0.3224E+01  0.4262E+03
      4.836  0.6938E+01  0.4288E+03
      4.927  0.0000E+00  0.4301E+03
      5.019  0.0000E+00  0.4319E+03
      5.111  0.3280E-08  0.4333E+03
      5.203  0.0000E+00  0.4351E+03
      5.295  0.1612E+01  0.4362E+03
      5.387  0.4835E+01  0.4397E+03
      5.479  0.1616E+01  0.4426E+03
      5.571  0.2866E+01  0.4463E+03
      5.663  0.1041E-05  0.4473E+03
      5.755  0.0000E+00  0.4487E+03
      5.847  0.2337E+01  0.4506E+03
      5.939  0.6152E-04  0.4521E+03
      6.030  0.1353E-10  0.4531E+03
      6.122  0.1612E+01  0.4560E+03
      6.214  0.5085E+01  0.4584E+03
      6.306  0.6447E+01  0.4614E+03
      6.398  0.4847E+01  0.4634E+03
      6.490  0.0000E+00  0.4671E+03
      6.582  0.1140E+01  0.4707E+03
      6.674  0.1586E+01  0.4735E+03
      6.766  0.8065E+01  0.4795E+03
      6.858  0.5964E+01  0.4827E+03
      6.950  0.3514E+00  0.4871E+03
      7.041  0.4877E+01  0.4916E+03
      7.133  0.2536E+01  0.4968E+03
      7.225  0.3125E+01  0.5016E+03
      7.317  0.6448E+01  0.5058E+03
      7.409  0.1845E+01  0.5111E+03
      7.501  0.0000E+00  0.5118E+03
      7.593  0.0000E+00  0.5120E+03
      7.685  0.0000E+00  0.5120E+03
      7.777  0.0000E+00  0.5120E+03
      7.869  0.0000E+00  0.5120E+03
      7.961  0.0000E+00  0.5120E+03
      8.053  0.0000E+00  0.5120E+03
      8.144  0.0000E+00  0.5120E+03
      8.236  0.0000E+00  0.5120E+03
      8.328  0.0000E+00  0.5120E+03
      8.420  0.0000E+00  0.5120E+03
      8.512  0.0000E+00  0.5120E+03
      8.604  0.0000E+00  0.5120E+03
      8.696  0.0000E+00  0.5120E+03
      8.788  0.0000E+00  0.5120E+03
