       N       E                     dE             d eps       ncg     rms          rms(c)
DAV:   1     0.356892489411E+04    0.35689E+04   -0.18910E+05  7176   0.170E+03
DAV:   2     0.201542355901E+03   -0.33674E+04   -0.31520E+04  8056   0.353E+02
DAV:   3    -0.391762081400E+03   -0.59330E+03   -0.58389E+03  9472   0.171E+02
DAV:   4    -0.432354548336E+03   -0.40592E+02   -0.40409E+02  9688   0.489E+01
DAV:   5    -0.433833945170E+03   -0.14794E+01   -0.14760E+01  9776   0.906E+00    0.278E+01
DAV:   6    -0.414635162736E+03    0.19199E+02   -0.37168E+01 10008   0.107E+01    0.148E+01
DAV:   7    -0.412429670494E+03    0.22055E+01   -0.16721E+01  9880   0.715E+00    0.755E+00
DAV:   8    -0.412231903476E+03    0.19777E+00   -0.32696E+00  8704   0.353E+00    0.186E+00
DAV:   9    -0.412182035054E+03    0.49868E-01   -0.53626E-01  8960   0.171E+00    0.641E-01
DAV:  10    -0.412195013138E+03   -0.12978E-01   -0.13608E-01  8816   0.653E-01    0.486E-01
DAV:  11    -0.412193626982E+03    0.13862E-02   -0.16079E-02  9296   0.322E-01    0.247E-01
DAV:  12    -0.412195096497E+03   -0.14695E-02   -0.11786E-02 10112   0.176E-01    0.108E-01
DAV:  13    -0.412195457942E+03   -0.36144E-03   -0.12273E-03  8080   0.809E-02    0.772E-02
DAV:  14    -0.412195479533E+03   -0.21591E-04   -0.20255E-04  9536   0.292E-02    0.424E-02
DAV:  15    -0.412195517131E+03   -0.37599E-04   -0.20030E-04  8648   0.244E-02    0.101E-02
DAV:  16    -0.412195526834E+03   -0.97026E-05   -0.38098E-05 10504   0.122E-02    0.148E-02
DAV:  17    -0.412195526576E+03    0.25807E-06   -0.50001E-06  7840   0.423E-03    0.639E-03
DAV:  18    -0.412195526936E+03   -0.36048E-06   -0.11929E-05  9544   0.580E-03    0.485E-03
DAV:  19    -0.412195526876E+03    0.59939E-07   -0.13928E-06  7728   0.289E-03    0.278E-03
DAV:  20    -0.412195526945E+03   -0.68256E-07   -0.38829E-07  9008   0.106E-03    0.746E-04
DAV:  21    -0.412195527005E+03   -0.60860E-07   -0.11037E-07  7472   0.649E-04    0.544E-04
DAV:  22    -0.412195526992E+03    0.13049E-07   -0.11801E-08  5576   0.326E-04    0.347E-04
DAV:  23    -0.412195526976E+03    0.16524E-07   -0.42362E-09  4896   0.273E-04    0.217E-04
DAV:  24    -0.412195526976E+03    0.29104E-09   -0.64174E-10  4344   0.151E-04
   1 F= -.41219553E+03 E0= -.41219553E+03  d E =-.686692-228
