   8   8   1   0
  0.3394927E+02  0.6476000E-09  0.6476000E-09  0.6476000E-09  0.5000000E-15
  1.000000000000000E-004
  CAR 
 Name                                    
     11.24697226    -10.00929324  301      1.84107478      1.00000000
    -10.009  0.0000E+00  0.0000E+00
     -9.938  0.0000E+00  0.0000E+00
     -9.868  0.0000E+00  0.0000E+00
     -9.797  0.0000E+00  0.0000E+00
     -9.726  0.0000E+00  0.0000E+00
     -9.655  0.0000E+00  0.0000E+00
     -9.584  0.0000E+00  0.0000E+00
     -9.513  0.0000E+00  0.0000E+00
     -9.442  0.0000E+00  0.0000E+00
     -9.372  0.0000E+00  0.0000E+00
     -9.301  0.0000E+00  0.0000E+00
     -9.230  0.0000E+00  0.0000E+00
     -9.159  0.0000E+00  0.0000E+00
     -9.088  0.3994E-12  0.2830E-13
     -9.017  0.4410E-02  0.3125E-03
     -8.946  0.2647E-01  0.2188E-02
     -8.876  0.6483E-01  0.6781E-02
     -8.805  0.4914E-01  0.1026E-01
     -8.734  0.2115E+00  0.2531E-01
     -8.663  0.2262E+00  0.4134E-01
     -8.592  0.5398E+00  0.7959E-01
     -8.521  0.0000E+00  0.8000E-01
     -8.451  0.0000E+00  0.8000E-01
     -8.380  0.0000E+00  0.8000E-01
     -8.309  0.0000E+00  0.8000E-01
     -8.238  0.0000E+00  0.8000E-01
     -8.167  0.0000E+00  0.8000E-01
     -8.096  0.0000E+00  0.8000E-01
     -8.025  0.0000E+00  0.8000E-01
     -7.955  0.0000E+00  0.8000E-01
     -7.884  0.0000E+00  0.8000E-01
     -7.813  0.0000E+00  0.8000E-01
     -7.742  0.0000E+00  0.8000E-01
     -7.671  0.0000E+00  0.8000E-01
     -7.600  0.0000E+00  0.8000E-01
     -7.529  0.0000E+00  0.8000E-01
     -7.459  0.0000E+00  0.8000E-01
     -7.388  0.0000E+00  0.8000E-01
     -7.317  0.0000E+00  0.8000E-01
     -7.246  0.0000E+00  0.8000E-01
     -7.175  0.0000E+00  0.8000E-01
     -7.104  0.0000E+00  0.8000E-01
     -7.033  0.0000E+00  0.8000E-01
     -6.963  0.0000E+00  0.8000E-01
     -6.892  0.0000E+00  0.8000E-01
     -6.821  0.0000E+00  0.8000E-01
     -6.750  0.0000E+00  0.8000E-01
     -6.679  0.0000E+00  0.8000E-01
     -6.608  0.0000E+00  0.8000E-01
     -6.537  0.0000E+00  0.8000E-01
     -6.467  0.0000E+00  0.8000E-01
     -6.396  0.0000E+00  0.8000E-01
     -6.325  0.3873E-04  0.8000E-01
     -6.254  0.4485E+00  0.1118E+00
     -6.183  0.1840E+01  0.2421E+00
     -6.112  0.6401E+00  0.2880E+00
     -6.041  0.1709E+01  0.4103E+00
     -5.971  0.1060E+00  0.4178E+00
     -5.900  0.1057E+00  0.4253E+00
     -5.829  0.6145E-01  0.4297E+00
     -5.758  0.2396E+00  0.4467E+00
     -5.687  0.2161E+00  0.4625E+00
     -5.616  0.2217E+00  0.4782E+00
     -5.545  0.2457E-01  0.4800E+00
     -5.475  0.0000E+00  0.4800E+00
     -5.404  0.0000E+00  0.4800E+00
     -5.333  0.0000E+00  0.4800E+00
     -5.262  0.0000E+00  0.4800E+00
     -5.191  0.0000E+00  0.4800E+00
     -5.120  0.0000E+00  0.4800E+00
     -5.049  0.0000E+00  0.4800E+00
     -4.979  0.0000E+00  0.4800E+00
     -4.908  0.0000E+00  0.4800E+00
     -4.837  0.0000E+00  0.4800E+00
     -4.766  0.0000E+00  0.4800E+00
     -4.695  0.0000E+00  0.4800E+00
     -4.624  0.0000E+00  0.4800E+00
     -4.554  0.0000E+00  0.4800E+00
     -4.483  0.0000E+00  0.4800E+00
     -4.412  0.0000E+00  0.4800E+00
     -4.341  0.0000E+00  0.4800E+00
     -4.270  0.0000E+00  0.4800E+00
     -4.199  0.0000E+00  0.4800E+00
     -4.128  0.0000E+00  0.4800E+00
     -4.058  0.0000E+00  0.4800E+00
     -3.987  0.0000E+00  0.4800E+00
     -3.916  0.0000E+00  0.4800E+00
     -3.845  0.0000E+00  0.4800E+00
     -3.774  0.0000E+00  0.4800E+00
     -3.703  0.0000E+00  0.4800E+00
     -3.632  0.0000E+00  0.4800E+00
     -3.562  0.0000E+00  0.4800E+00
     -3.491  0.0000E+00  0.4800E+00
     -3.420  0.0000E+00  0.4800E+00
     -3.349  0.0000E+00  0.4800E+00
     -3.278  0.0000E+00  0.4800E+00
     -3.207  0.0000E+00  0.4800E+00
     -3.136  0.0000E+00  0.4800E+00
     -3.066  0.0000E+00  0.4800E+00
     -2.995  0.0000E+00  0.4800E+00
     -2.924  0.0000E+00  0.4800E+00
     -2.853  0.0000E+00  0.4800E+00
     -2.782  0.0000E+00  0.4800E+00
     -2.711  0.0000E+00  0.4800E+00
     -2.640  0.0000E+00  0.4800E+00
     -2.570  0.0000E+00  0.4800E+00
     -2.499  0.0000E+00  0.4800E+00
     -2.428  0.0000E+00  0.4800E+00
     -2.357  0.0000E+00  0.4800E+00
     -2.286  0.1185E-01  0.4808E+00
     -2.215  0.1735E-01  0.4821E+00
     -2.144  0.6065E-01  0.4864E+00
     -2.074  0.1792E+00  0.4991E+00
     -2.003  0.2835E+00  0.5191E+00
     -1.932  0.3240E-01  0.5216E+00
     -1.861  0.9712E-01  0.5284E+00
     -1.790  0.2068E-01  0.5305E+00
     -1.719  0.5779E-02  0.5309E+00
     -1.648  0.5293E-01  0.5347E+00
     -1.578  0.1014E-04  0.5347E+00
     -1.507  0.1058E+00  0.5422E+00
     -1.436  0.0000E+00  0.5422E+00
     -1.365  0.0000E+00  0.5422E+00
     -1.294  0.0000E+00  0.5422E+00
     -1.223  0.0000E+00  0.5422E+00
     -1.153  0.3169E-03  0.5422E+00
     -1.082  0.1055E+00  0.5497E+00
     -1.011  0.0000E+00  0.5497E+00
     -0.940  0.0000E+00  0.5497E+00
     -0.869  0.0000E+00  0.5497E+00
     -0.798  0.2386E-03  0.5497E+00
     -0.727  0.6151E-01  0.5541E+00
     -0.657  0.0000E+00  0.5541E+00
     -0.586  0.0000E+00  0.5541E+00
     -0.515  0.7933E-04  0.5541E+00
     -0.444  0.1024E+00  0.5613E+00
     -0.373  0.5628E-01  0.5653E+00
     -0.302  0.6056E-02  0.5657E+00
     -0.231  0.2041E-01  0.5672E+00
     -0.161  0.5708E-01  0.5712E+00
     -0.090  0.1060E+00  0.5789E+00
     -0.019  0.2668E+00  0.5978E+00
      0.052  0.1232E+00  0.6066E+00
      0.123  0.7605E-02  0.6071E+00
      0.194  0.1886E-01  0.6084E+00
      0.265  0.1659E-13  0.6084E+00
      0.335  0.8174E-01  0.6142E+00
      0.406  0.8701E-01  0.6204E+00
      0.477  0.2930E+00  0.6412E+00
      0.548  0.8038E-01  0.6472E+00
      0.619  0.1147E+00  0.6553E+00
      0.690  0.1058E+00  0.6628E+00
      0.761  0.0000E+00  0.6628E+00
      0.831  0.8436E-01  0.6688E+00
      0.902  0.7442E-01  0.6741E+00
      0.973  0.1054E+00  0.6815E+00
      1.044  0.2219E-02  0.6817E+00
      1.115  0.3483E+00  0.7064E+00
      1.186  0.0000E+00  0.7066E+00
      1.257  0.0000E+00  0.7066E+00
      1.327  0.0000E+00  0.7066E+00
      1.398  0.1433E-01  0.7076E+00
      1.469  0.1082E+00  0.7152E+00
      1.540  0.0000E+00  0.7153E+00
      1.611  0.1666E-01  0.7165E+00
      1.682  0.3627E-01  0.7191E+00
      1.753  0.8188E-06  0.7191E+00
      1.823  0.1323E-01  0.7200E+00
      1.894  0.0000E+00  0.7200E+00
      1.965  0.0000E+00  0.7200E+00
      2.036  0.0000E+00  0.7200E+00
      2.107  0.0000E+00  0.7200E+00
      2.178  0.0000E+00  0.7200E+00
      2.248  0.0000E+00  0.7200E+00
      2.319  0.9313E-09  0.7200E+00
      2.390  0.4410E-02  0.7203E+00
      2.461  0.0000E+00  0.7203E+00
      2.532  0.0000E+00  0.7203E+00
      2.603  0.0000E+00  0.7203E+00
      2.674  0.0000E+00  0.7203E+00
      2.744  0.0000E+00  0.7203E+00
      2.815  0.0000E+00  0.7203E+00
      2.886  0.0000E+00  0.7203E+00
      2.957  0.0000E+00  0.7203E+00
      3.028  0.0000E+00  0.7203E+00
      3.099  0.0000E+00  0.7203E+00
      3.170  0.0000E+00  0.7203E+00
      3.240  0.0000E+00  0.7203E+00
      3.311  0.0000E+00  0.7203E+00
      3.382  0.0000E+00  0.7203E+00
      3.453  0.0000E+00  0.7203E+00
      3.524  0.2887E-02  0.7205E+00
      3.595  0.1476E-01  0.7216E+00
      3.666  0.6016E-01  0.7258E+00
      3.736  0.0000E+00  0.7259E+00
      3.807  0.0000E+00  0.7259E+00
      3.878  0.1859E-01  0.7273E+00
      3.949  0.3433E-01  0.7297E+00
      4.020  0.0000E+00  0.7297E+00
      4.091  0.0000E+00  0.7297E+00
      4.162  0.5716E-03  0.7297E+00
      4.232  0.1558E+00  0.7408E+00
      4.303  0.5532E-01  0.7447E+00
      4.374  0.0000E+00  0.7447E+00
      4.445  0.4620E-02  0.7450E+00
      4.516  0.3657E-01  0.7476E+00
      4.587  0.1628E-01  0.7488E+00
      4.658  0.2192E-01  0.7503E+00
      4.728  0.2640E+00  0.7690E+00
      4.799  0.5285E-01  0.7728E+00
      4.870  0.9776E-01  0.7797E+00
      4.941  0.3452E-01  0.7822E+00
      5.012  0.1100E-01  0.7830E+00
      5.083  0.1478E+00  0.7934E+00
      5.154  0.5833E-03  0.7935E+00
      5.224  0.7881E-01  0.7991E+00
      5.295  0.1049E+00  0.8065E+00
      5.366  0.2024E-03  0.8066E+00
      5.437  0.1056E+00  0.8141E+00
      5.508  0.0000E+00  0.8141E+00
      5.579  0.0000E+00  0.8141E+00
      5.649  0.0000E+00  0.8141E+00
      5.720  0.0000E+00  0.8141E+00
      5.791  0.1383E-02  0.8142E+00
      5.862  0.1567E+00  0.8253E+00
      5.933  0.0000E+00  0.8253E+00
      6.004  0.0000E+00  0.8253E+00
      6.075  0.0000E+00  0.8253E+00
      6.145  0.0000E+00  0.8253E+00
      6.216  0.1109E+00  0.8332E+00
      6.287  0.1008E+00  0.8403E+00
      6.358  0.1175E-16  0.8403E+00
      6.429  0.1201E+00  0.8488E+00
      6.500  0.1263E+00  0.8581E+00
      6.571  0.0000E+00  0.8581E+00
      6.641  0.0000E+00  0.8581E+00
      6.712  0.9591E-02  0.8588E+00
      6.783  0.2407E+00  0.8759E+00
      6.854  0.1436E-01  0.8769E+00
      6.925  0.2746E-01  0.8788E+00
      6.996  0.1809E+00  0.8916E+00
      7.067  0.3528E-01  0.8944E+00
      7.137  0.8358E-02  0.8950E+00
      7.208  0.1504E+00  0.9056E+00
      7.279  0.1349E+00  0.9152E+00
      7.350  0.1552E+00  0.9262E+00
      7.421  0.0000E+00  0.9263E+00
      7.492  0.8927E-08  0.9263E+00
      7.563  0.1059E+00  0.9337E+00
      7.633  0.7208E-01  0.9389E+00
      7.704  0.3377E-01  0.9413E+00
      7.775  0.1955E-03  0.9413E+00
      7.846  0.1057E+00  0.9487E+00
      7.917  0.6417E-01  0.9533E+00
      7.988  0.0000E+00  0.9537E+00
      8.059  0.3700E-10  0.9538E+00
      8.129  0.2646E-01  0.9556E+00
      8.200  0.0000E+00  0.9556E+00
      8.271  0.0000E+00  0.9556E+00
      8.342  0.0000E+00  0.9556E+00
      8.413  0.0000E+00  0.9556E+00
      8.484  0.0000E+00  0.9556E+00
      8.555  0.0000E+00  0.9556E+00
      8.625  0.0000E+00  0.9556E+00
      8.696  0.0000E+00  0.9556E+00
      8.767  0.0000E+00  0.9556E+00
      8.838  0.0000E+00  0.9556E+00
      8.909  0.0000E+00  0.9556E+00
      8.980  0.0000E+00  0.9556E+00
      9.050  0.1664E-01  0.9568E+00
      9.121  0.3628E-01  0.9594E+00
      9.192  0.4410E-02  0.9597E+00
      9.263  0.0000E+00  0.9597E+00
      9.334  0.0000E+00  0.9597E+00
      9.405  0.0000E+00  0.9597E+00
      9.476  0.0000E+00  0.9597E+00
      9.546  0.0000E+00  0.9597E+00
      9.617  0.0000E+00  0.9597E+00
      9.688  0.0000E+00  0.9597E+00
      9.759  0.0000E+00  0.9597E+00
      9.830  0.0000E+00  0.9597E+00
      9.901  0.0000E+00  0.9597E+00
      9.972  0.0000E+00  0.9597E+00
     10.042  0.0000E+00  0.9597E+00
     10.113  0.0000E+00  0.9597E+00
     10.184  0.0000E+00  0.9597E+00
     10.255  0.5925E-06  0.9597E+00
     10.326  0.4410E-02  0.9600E+00
     10.397  0.0000E+00  0.9600E+00
     10.468  0.0000E+00  0.9600E+00
     10.538  0.0000E+00  0.9600E+00
     10.609  0.0000E+00  0.9600E+00
     10.680  0.0000E+00  0.9600E+00
     10.751  0.0000E+00  0.9600E+00
     10.822  0.0000E+00  0.9600E+00
     10.893  0.0000E+00  0.9600E+00
     10.964  0.0000E+00  0.9600E+00
     11.034  0.0000E+00  0.9600E+00
     11.105  0.0000E+00  0.9600E+00
     11.176  0.0000E+00  0.9600E+00
     11.247  0.0000E+00  0.9600E+00
     11.24697226    -10.00929324  301      1.84107478      1.00000000
    -10.009  0.0000E+00  0.0000E+00  0.0000E+00
     -9.938  0.0000E+00  0.0000E+00  0.0000E+00
     -9.868  0.0000E+00  0.0000E+00  0.0000E+00
     -9.797  0.0000E+00  0.0000E+00  0.0000E+00
     -9.726  0.0000E+00  0.0000E+00  0.0000E+00
     -9.655  0.0000E+00  0.0000E+00  0.0000E+00
     -9.584  0.0000E+00  0.0000E+00  0.0000E+00
     -9.513  0.0000E+00  0.0000E+00  0.0000E+00
     -9.442  0.0000E+00  0.0000E+00  0.0000E+00
     -9.372  0.0000E+00  0.0000E+00  0.0000E+00
     -9.301  0.0000E+00  0.0000E+00  0.0000E+00
     -9.230  0.0000E+00  0.0000E+00  0.0000E+00
     -9.159  0.0000E+00  0.0000E+00  0.0000E+00
     -9.088  0.5359E-12  0.3914E-37  0.9206E-36
     -9.017  0.5917E-02  0.4830E-11  0.3741E-10
     -8.946  0.3100E-01  0.1090E-02  0.8439E-02
     -8.876  0.6430E-01  0.5310E-02  0.4496E-01
     -8.805  0.3910E-01  0.6154E-02  0.5547E-01
     -8.734  0.1221E+00  0.3594E-01  0.3527E+00
     -8.663  0.7277E-01  0.4954E-01  0.5353E+00
     -8.592  0.6666E-01  0.1396E+00  0.1572E+01
     -8.521  0.0000E+00  0.0000E+00  0.0000E+00
     -8.451  0.0000E+00  0.0000E+00  0.0000E+00
     -8.380  0.0000E+00  0.0000E+00  0.0000E+00
     -8.309  0.0000E+00  0.0000E+00  0.0000E+00
     -8.238  0.0000E+00  0.0000E+00  0.0000E+00
     -8.167  0.0000E+00  0.0000E+00  0.0000E+00
     -8.096  0.0000E+00  0.0000E+00  0.0000E+00
     -8.025  0.0000E+00  0.0000E+00  0.0000E+00
     -7.955  0.0000E+00  0.0000E+00  0.0000E+00
     -7.884  0.0000E+00  0.0000E+00  0.0000E+00
     -7.813  0.0000E+00  0.0000E+00  0.0000E+00
     -7.742  0.0000E+00  0.0000E+00  0.0000E+00
     -7.671  0.0000E+00  0.0000E+00  0.0000E+00
     -7.600  0.0000E+00  0.0000E+00  0.0000E+00
     -7.529  0.0000E+00  0.0000E+00  0.0000E+00
     -7.459  0.0000E+00  0.0000E+00  0.0000E+00
     -7.388  0.0000E+00  0.0000E+00  0.0000E+00
     -7.317  0.0000E+00  0.0000E+00  0.0000E+00
     -7.246  0.0000E+00  0.0000E+00  0.0000E+00
     -7.175  0.0000E+00  0.0000E+00  0.0000E+00
     -7.104  0.0000E+00  0.0000E+00  0.0000E+00
     -7.033  0.0000E+00  0.0000E+00  0.0000E+00
     -6.963  0.0000E+00  0.0000E+00  0.0000E+00
     -6.892  0.0000E+00  0.0000E+00  0.0000E+00
     -6.821  0.0000E+00  0.0000E+00  0.0000E+00
     -6.750  0.0000E+00  0.0000E+00  0.0000E+00
     -6.679  0.0000E+00  0.0000E+00  0.0000E+00
     -6.608  0.0000E+00  0.0000E+00  0.0000E+00
     -6.537  0.0000E+00  0.0000E+00  0.0000E+00
     -6.467  0.0000E+00  0.0000E+00  0.0000E+00
     -6.396  0.0000E+00  0.0000E+00  0.0000E+00
     -6.325  0.1044E-15  0.2715E-06  0.8817E-03
     -6.254  0.2166E-02  0.3489E-02  0.1027E+02
     -6.183  0.9583E-02  0.1591E-01  0.4250E+02
     -6.112  0.1629E-01  0.7385E-03  0.1489E+02
     -6.041  0.5368E-02  0.4102E-03  0.4043E+02
     -5.971  0.2028E-01  0.1054E-02  0.2313E+01
     -5.900  0.2173E-01  0.1724E-02  0.2273E+01
     -5.829  0.1200E-01  0.1796E-02  0.1300E+01
     -5.758  0.3632E-01  0.9860E-02  0.5048E+01
     -5.687  0.2383E-01  0.1087E-01  0.4536E+01
     -5.616  0.9709E-02  0.1591E-01  0.4595E+01
     -5.545  0.4994E-27  0.1960E-02  0.5081E+00
     -5.475  0.0000E+00  0.0000E+00  0.0000E+00
     -5.404  0.0000E+00  0.0000E+00  0.0000E+00
     -5.333  0.0000E+00  0.0000E+00  0.0000E+00
     -5.262  0.0000E+00  0.0000E+00  0.0000E+00
     -5.191  0.0000E+00  0.0000E+00  0.0000E+00
     -5.120  0.0000E+00  0.0000E+00  0.0000E+00
     -5.049  0.0000E+00  0.0000E+00  0.0000E+00
     -4.979  0.0000E+00  0.0000E+00  0.0000E+00
     -4.908  0.0000E+00  0.0000E+00  0.0000E+00
     -4.837  0.0000E+00  0.0000E+00  0.0000E+00
     -4.766  0.0000E+00  0.0000E+00  0.0000E+00
     -4.695  0.0000E+00  0.0000E+00  0.0000E+00
     -4.624  0.0000E+00  0.0000E+00  0.0000E+00
     -4.554  0.0000E+00  0.0000E+00  0.0000E+00
     -4.483  0.0000E+00  0.0000E+00  0.0000E+00
     -4.412  0.0000E+00  0.0000E+00  0.0000E+00
     -4.341  0.0000E+00  0.0000E+00  0.0000E+00
     -4.270  0.0000E+00  0.0000E+00  0.0000E+00
     -4.199  0.0000E+00  0.0000E+00  0.0000E+00
     -4.128  0.0000E+00  0.0000E+00  0.0000E+00
     -4.058  0.0000E+00  0.0000E+00  0.0000E+00
     -3.987  0.0000E+00  0.0000E+00  0.0000E+00
     -3.916  0.0000E+00  0.0000E+00  0.0000E+00
     -3.845  0.0000E+00  0.0000E+00  0.0000E+00
     -3.774  0.0000E+00  0.0000E+00  0.0000E+00
     -3.703  0.0000E+00  0.0000E+00  0.0000E+00
     -3.632  0.0000E+00  0.0000E+00  0.0000E+00
     -3.562  0.0000E+00  0.0000E+00  0.0000E+00
     -3.491  0.0000E+00  0.0000E+00  0.0000E+00
     -3.420  0.0000E+00  0.0000E+00  0.0000E+00
     -3.349  0.0000E+00  0.0000E+00  0.0000E+00
     -3.278  0.0000E+00  0.0000E+00  0.0000E+00
     -3.207  0.0000E+00  0.0000E+00  0.0000E+00
     -3.136  0.0000E+00  0.0000E+00  0.0000E+00
     -3.066  0.0000E+00  0.0000E+00  0.0000E+00
     -2.995  0.0000E+00  0.0000E+00  0.0000E+00
     -2.924  0.0000E+00  0.0000E+00  0.0000E+00
     -2.853  0.0000E+00  0.0000E+00  0.0000E+00
     -2.782  0.0000E+00  0.0000E+00  0.0000E+00
     -2.711  0.0000E+00  0.0000E+00  0.0000E+00
     -2.640  0.0000E+00  0.0000E+00  0.0000E+00
     -2.570  0.0000E+00  0.0000E+00  0.0000E+00
     -2.499  0.0000E+00  0.0000E+00  0.0000E+00
     -2.428  0.0000E+00  0.0000E+00  0.0000E+00
     -2.357  0.0000E+00  0.0000E+00  0.0000E+00
     -2.286  0.4961E-01  0.6738E-02  0.3658E-04
     -2.215  0.9349E-01  0.3293E-02  0.6453E-02
     -2.144  0.3685E+00  0.2204E-02  0.2037E-01
     -2.074  0.1004E+01  0.3794E-01  0.2333E-01
     -2.003  0.1459E+01  0.8819E-01  0.7911E-01
     -1.932  0.1711E+00  0.8297E-02  0.1204E-01
     -1.861  0.5399E+00  0.1232E-01  0.6586E-01
     -1.790  0.1133E+00  0.1617E-02  0.2001E-01
     -1.719  0.3165E-01  0.4519E-03  0.5590E-02
     -1.648  0.2585E+00  0.1814E-01  0.3195E-01
     -1.578  0.4162E-04  0.5140E-05  0.7595E-05
     -1.507  0.4343E+00  0.5363E-01  0.7924E-01
     -1.436  0.0000E+00  0.0000E+00  0.0000E+00
     -1.365  0.0000E+00  0.0000E+00  0.0000E+00
     -1.294  0.0000E+00  0.0000E+00  0.0000E+00
     -1.223  0.0000E+00  0.0000E+00  0.0000E+00
     -1.153  0.1402E-02  0.1109E-03  0.3349E-03
     -1.082  0.4668E+00  0.3695E-01  0.1116E+00
     -1.011  0.0000E+00  0.0000E+00  0.0000E+00
     -0.940  0.0000E+00  0.0000E+00  0.0000E+00
     -0.869  0.0000E+00  0.0000E+00  0.0000E+00
     -0.798  0.8321E-03  0.1406E-03  0.2509E-03
     -0.727  0.2433E+00  0.2609E-01  0.7164E-01
     -0.657  0.0000E+00  0.0000E+00  0.0000E+00
     -0.586  0.0000E+00  0.0000E+00  0.0000E+00
     -0.515  0.2987E-07  0.1356E-03  0.3962E-04
     -0.444  0.7624E-02  0.1708E+00  0.5633E-01
     -0.373  0.8633E-02  0.9139E-01  0.3399E-01
     -0.302  0.4793E-26  0.9097E-02  0.5518E-02
     -0.231  0.1615E-25  0.3066E-01  0.1859E-01
     -0.161  0.1803E+00  0.3659E-01  0.6199E-01
     -0.090  0.2404E-01  0.1738E+00  0.6234E-01
     -0.019  0.1247E+00  0.4116E+00  0.1763E+00
      0.052  0.1947E-01  0.2078E+00  0.6644E-01
      0.123  0.2379E-22  0.1377E-01  0.2913E-02
      0.194  0.5898E-22  0.3416E-01  0.7224E-02
      0.265  0.3755E-36  0.2878E-13  0.9128E-14
      0.335  0.1076E-02  0.1404E+00  0.4763E-01
      0.406  0.2860E-02  0.1468E+00  0.5536E-01
      0.477  0.5923E-01  0.4580E+00  0.2254E+00
      0.548  0.9531E-01  0.9476E-01  0.7680E-01
      0.619  0.4010E-01  0.1739E+00  0.8785E-01
      0.690  0.1771E-02  0.1673E+00  0.8554E-01
      0.761  0.0000E+00  0.0000E+00  0.0000E+00
      0.831  0.2352E-01  0.1157E+00  0.8427E-01
      0.902  0.3972E-01  0.9488E-01  0.7714E-01
      0.973  0.6452E-22  0.1501E+00  0.1055E+00
      1.044  0.2500E-03  0.2910E-02  0.2438E-02
      1.115  0.1906E-01  0.4628E+00  0.3783E+00
      1.186  0.0000E+00  0.0000E+00  0.0000E+00
      1.257  0.0000E+00  0.0000E+00  0.0000E+00
      1.327  0.0000E+00  0.0000E+00  0.0000E+00
      1.398  0.6184E-28  0.1533E-01  0.1915E-01
      1.469  0.2372E-26  0.1114E+00  0.1495E+00
      1.540  0.0000E+00  0.0000E+00  0.0000E+00
      1.611  0.9329E-28  0.1418E-01  0.2500E-01
      1.682  0.2031E-27  0.3088E-01  0.5444E-01
      1.753  0.1633E-31  0.4984E-06  0.1384E-05
      1.823  0.2638E-27  0.8053E-02  0.2236E-01
      1.894  0.0000E+00  0.0000E+00  0.0000E+00
      1.965  0.0000E+00  0.0000E+00  0.0000E+00
      2.036  0.0000E+00  0.0000E+00  0.0000E+00
      2.107  0.0000E+00  0.0000E+00  0.0000E+00
      2.178  0.0000E+00  0.0000E+00  0.0000E+00
      2.248  0.0000E+00  0.0000E+00  0.0000E+00
      2.319  0.7612E-08  0.3206E-34  0.7722E-34
      2.390  0.3605E-01  0.1519E-27  0.3657E-27
      2.461  0.0000E+00  0.0000E+00  0.0000E+00
      2.532  0.0000E+00  0.0000E+00  0.0000E+00
      2.603  0.0000E+00  0.0000E+00  0.0000E+00
      2.674  0.0000E+00  0.0000E+00  0.0000E+00
      2.744  0.0000E+00  0.0000E+00  0.0000E+00
      2.815  0.0000E+00  0.0000E+00  0.0000E+00
      2.886  0.0000E+00  0.0000E+00  0.0000E+00
      2.957  0.0000E+00  0.0000E+00  0.0000E+00
      3.028  0.0000E+00  0.0000E+00  0.0000E+00
      3.099  0.0000E+00  0.0000E+00  0.0000E+00
      3.170  0.0000E+00  0.0000E+00  0.0000E+00
      3.240  0.0000E+00  0.0000E+00  0.0000E+00
      3.311  0.0000E+00  0.0000E+00  0.0000E+00
      3.382  0.0000E+00  0.0000E+00  0.0000E+00
      3.453  0.0000E+00  0.0000E+00  0.0000E+00
      3.524  0.1785E-01  0.2324E-02  0.5107E-03
      3.595  0.9127E-01  0.1188E-01  0.2612E-02
      3.666  0.3331E+00  0.3856E-01  0.1230E-01
      3.736  0.0000E+00  0.0000E+00  0.0000E+00
      3.807  0.0000E+00  0.0000E+00  0.0000E+00
      3.878  0.1018E+00  0.1247E-01  0.3075E-02
      3.949  0.1880E+00  0.2303E-01  0.5679E-02
      4.020  0.0000E+00  0.0000E+00  0.0000E+00
      4.091  0.0000E+00  0.0000E+00  0.0000E+00
      4.162  0.3142E-02  0.5262E-03  0.1220E-03
      4.232  0.8512E+00  0.1382E+00  0.3460E-01
      4.303  0.2984E+00  0.4524E-01  0.1328E-01
      4.374  0.0000E+00  0.0000E+00  0.0000E+00
      4.445  0.2482E-01  0.4262E-06  0.3702E-02
      4.516  0.1632E+00  0.2560E-01  0.2513E-01
      4.587  0.2787E-01  0.2924E-01  0.1065E-01
      4.658  0.1343E+00  0.3254E-03  0.1034E-01
      4.728  0.1253E+01  0.2178E+00  0.1100E+00
      4.799  0.2825E+00  0.6028E-01  0.9781E-02
      4.870  0.4067E+00  0.1110E+00  0.3711E-01
      4.941  0.1818E+00  0.2868E-01  0.1012E-01
      5.012  0.5984E-01  0.1524E-02  0.6375E-02
      5.083  0.8216E+00  0.2386E-01  0.8101E-01
      5.154  0.1206E-04  0.2060E-02  0.1028E-03
      5.224  0.5686E-03  0.2157E+00  0.4492E-01
      5.295  0.5297E+00  0.8540E-01  0.3804E-01
      5.366  0.2434E-04  0.5270E-03  0.1198E-03
      5.437  0.1271E-01  0.2751E+00  0.6253E-01
      5.508  0.0000E+00  0.0000E+00  0.0000E+00
      5.579  0.0000E+00  0.0000E+00  0.0000E+00
      5.649  0.0000E+00  0.0000E+00  0.0000E+00
      5.720  0.0000E+00  0.0000E+00  0.0000E+00
      5.791  0.7013E-02  0.9655E-03  0.3432E-03
      5.862  0.2130E+00  0.4822E+00  0.4259E-01
      5.933  0.0000E+00  0.0000E+00  0.0000E+00
      6.004  0.0000E+00  0.0000E+00  0.0000E+00
      6.075  0.0000E+00  0.0000E+00  0.0000E+00
      6.145  0.0000E+00  0.0000E+00  0.0000E+00
      6.216  0.2225E+00  0.1618E+00  0.5305E-01
      6.287  0.1436E+00  0.2474E+00  0.3944E-01
      6.358  0.6985E-17  0.4242E-16  0.4399E-17
      6.429  0.6094E-01  0.4532E+00  0.4280E-01
      6.500  0.5986E-02  0.2459E+00  0.1036E+00
      6.571  0.0000E+00  0.0000E+00  0.0000E+00
      6.641  0.0000E+00  0.0000E+00  0.0000E+00
      6.712  0.3104E-02  0.3433E-01  0.3778E-02
      6.783  0.8966E-01  0.6248E+00  0.1433E+00
      6.854  0.2529E-02  0.4112E-01  0.9604E-02
      6.925  0.5849E-12  0.1440E+00  0.6762E-02
      6.996  0.4448E-01  0.7160E+00  0.6387E-01
      7.067  0.4179E-01  0.7368E-01  0.1190E-01
      7.137  0.4218E-02  0.2960E-01  0.3059E-02
      7.208  0.5199E-01  0.5784E+00  0.5007E-01
      7.279  0.7699E-04  0.5705E+00  0.6869E-01
      7.350  0.1914E-01  0.3837E+00  0.1070E+00
      7.421  0.0000E+00  0.0000E+00  0.0000E+00
      7.492  0.1079E-17  0.3763E-07  0.4883E-08
      7.563  0.1280E-10  0.4461E+00  0.5790E-01
      7.633  0.2490E-01  0.1369E+00  0.4632E-01
      7.704  0.1167E-01  0.6414E-01  0.2170E-01
      7.775  0.4628E-04  0.4997E-03  0.1239E-03
      7.846  0.2501E-01  0.2701E+00  0.6694E-01
      7.917  0.1614E-02  0.9438E-01  0.5287E-01
      7.988  0.0000E+00  0.0000E+00  0.0000E+00
      8.059  0.1498E-21  0.8446E-10  0.3143E-10
      8.129  0.1071E-12  0.6041E-01  0.2248E-01
      8.200  0.0000E+00  0.0000E+00  0.0000E+00
      8.271  0.0000E+00  0.0000E+00  0.0000E+00
      8.342  0.0000E+00  0.0000E+00  0.0000E+00
      8.413  0.0000E+00  0.0000E+00  0.0000E+00
      8.484  0.0000E+00  0.0000E+00  0.0000E+00
      8.555  0.0000E+00  0.0000E+00  0.0000E+00
      8.625  0.0000E+00  0.0000E+00  0.0000E+00
      8.696  0.0000E+00  0.0000E+00  0.0000E+00
      8.767  0.0000E+00  0.0000E+00  0.0000E+00
      8.838  0.0000E+00  0.0000E+00  0.0000E+00
      8.909  0.0000E+00  0.0000E+00  0.0000E+00
      8.980  0.0000E+00  0.0000E+00  0.0000E+00
      9.050  0.1515E-06  0.6077E-01  0.8486E-02
      9.121  0.4964E-06  0.1325E+00  0.1850E-01
      9.192  0.2446E-01  0.4202E-21  0.1202E-21
      9.263  0.0000E+00  0.0000E+00  0.0000E+00
      9.334  0.0000E+00  0.0000E+00  0.0000E+00
      9.405  0.0000E+00  0.0000E+00  0.0000E+00
      9.476  0.0000E+00  0.0000E+00  0.0000E+00
      9.546  0.0000E+00  0.0000E+00  0.0000E+00
      9.617  0.0000E+00  0.0000E+00  0.0000E+00
      9.688  0.0000E+00  0.0000E+00  0.0000E+00
      9.759  0.0000E+00  0.0000E+00  0.0000E+00
      9.830  0.0000E+00  0.0000E+00  0.0000E+00
      9.901  0.0000E+00  0.0000E+00  0.0000E+00
      9.972  0.0000E+00  0.0000E+00  0.0000E+00
     10.042  0.0000E+00  0.0000E+00  0.0000E+00
     10.113  0.0000E+00  0.0000E+00  0.0000E+00
     10.184  0.0000E+00  0.0000E+00  0.0000E+00
     10.255  0.1366E-05  0.5514E-14  0.9483E-07
     10.326  0.1016E-01  0.4103E-10  0.7058E-03
     10.397  0.0000E+00  0.0000E+00  0.0000E+00
     10.468  0.0000E+00  0.0000E+00  0.0000E+00
     10.538  0.0000E+00  0.0000E+00  0.0000E+00
     10.609  0.0000E+00  0.0000E+00  0.0000E+00
     10.680  0.0000E+00  0.0000E+00  0.0000E+00
     10.751  0.0000E+00  0.0000E+00  0.0000E+00
     10.822  0.0000E+00  0.0000E+00  0.0000E+00
     10.893  0.0000E+00  0.0000E+00  0.0000E+00
     10.964  0.0000E+00  0.0000E+00  0.0000E+00
     11.034  0.0000E+00  0.0000E+00  0.0000E+00
     11.105  0.0000E+00  0.0000E+00  0.0000E+00
     11.176  0.0000E+00  0.0000E+00  0.0000E+00
     11.247  0.0000E+00  0.0000E+00  0.0000E+00
     11.24697226    -10.00929324  301      1.84107478      1.00000000
    -10.009  0.0000E+00  0.0000E+00  0.0000E+00
     -9.938  0.0000E+00  0.0000E+00  0.0000E+00
     -9.868  0.0000E+00  0.0000E+00  0.0000E+00
     -9.797  0.0000E+00  0.0000E+00  0.0000E+00
     -9.726  0.0000E+00  0.0000E+00  0.0000E+00
     -9.655  0.0000E+00  0.0000E+00  0.0000E+00
     -9.584  0.0000E+00  0.0000E+00  0.0000E+00
     -9.513  0.0000E+00  0.0000E+00  0.0000E+00
     -9.442  0.0000E+00  0.0000E+00  0.0000E+00
     -9.372  0.0000E+00  0.0000E+00  0.0000E+00
     -9.301  0.0000E+00  0.0000E+00  0.0000E+00
     -9.230  0.0000E+00  0.0000E+00  0.0000E+00
     -9.159  0.0000E+00  0.0000E+00  0.0000E+00
     -9.088  0.5359E-12  0.4577E-37  0.1598E-35
     -9.017  0.5917E-02  0.4830E-11  0.3741E-10
     -8.946  0.3100E-01  0.1090E-02  0.8439E-02
     -8.876  0.6430E-01  0.5310E-02  0.4496E-01
     -8.805  0.3910E-01  0.6154E-02  0.5547E-01
     -8.734  0.1221E+00  0.3594E-01  0.3527E+00
     -8.663  0.7277E-01  0.4954E-01  0.5353E+00
     -8.592  0.6666E-01  0.1396E+00  0.1572E+01
     -8.521  0.0000E+00  0.0000E+00  0.0000E+00
     -8.451  0.0000E+00  0.0000E+00  0.0000E+00
     -8.380  0.0000E+00  0.0000E+00  0.0000E+00
     -8.309  0.0000E+00  0.0000E+00  0.0000E+00
     -8.238  0.0000E+00  0.0000E+00  0.0000E+00
     -8.167  0.0000E+00  0.0000E+00  0.0000E+00
     -8.096  0.0000E+00  0.0000E+00  0.0000E+00
     -8.025  0.0000E+00  0.0000E+00  0.0000E+00
     -7.955  0.0000E+00  0.0000E+00  0.0000E+00
     -7.884  0.0000E+00  0.0000E+00  0.0000E+00
     -7.813  0.0000E+00  0.0000E+00  0.0000E+00
     -7.742  0.0000E+00  0.0000E+00  0.0000E+00
     -7.671  0.0000E+00  0.0000E+00  0.0000E+00
     -7.600  0.0000E+00  0.0000E+00  0.0000E+00
     -7.529  0.0000E+00  0.0000E+00  0.0000E+00
     -7.459  0.0000E+00  0.0000E+00  0.0000E+00
     -7.388  0.0000E+00  0.0000E+00  0.0000E+00
     -7.317  0.0000E+00  0.0000E+00  0.0000E+00
     -7.246  0.0000E+00  0.0000E+00  0.0000E+00
     -7.175  0.0000E+00  0.0000E+00  0.0000E+00
     -7.104  0.0000E+00  0.0000E+00  0.0000E+00
     -7.033  0.0000E+00  0.0000E+00  0.0000E+00
     -6.963  0.0000E+00  0.0000E+00  0.0000E+00
     -6.892  0.0000E+00  0.0000E+00  0.0000E+00
     -6.821  0.0000E+00  0.0000E+00  0.0000E+00
     -6.750  0.0000E+00  0.0000E+00  0.0000E+00
     -6.679  0.0000E+00  0.0000E+00  0.0000E+00
     -6.608  0.0000E+00  0.0000E+00  0.0000E+00
     -6.537  0.0000E+00  0.0000E+00  0.0000E+00
     -6.467  0.0000E+00  0.0000E+00  0.0000E+00
     -6.396  0.0000E+00  0.0000E+00  0.0000E+00
     -6.325  0.1044E-15  0.2715E-06  0.8817E-03
     -6.254  0.2166E-02  0.3489E-02  0.1027E+02
     -6.183  0.9583E-02  0.1591E-01  0.4250E+02
     -6.112  0.1629E-01  0.7385E-03  0.1489E+02
     -6.041  0.5368E-02  0.4102E-03  0.4043E+02
     -5.971  0.2028E-01  0.1054E-02  0.2313E+01
     -5.900  0.2173E-01  0.1724E-02  0.2273E+01
     -5.829  0.1200E-01  0.1796E-02  0.1300E+01
     -5.758  0.3632E-01  0.9860E-02  0.5048E+01
     -5.687  0.2383E-01  0.1087E-01  0.4536E+01
     -5.616  0.9709E-02  0.1591E-01  0.4595E+01
     -5.545  0.1368E-27  0.1960E-02  0.5081E+00
     -5.475  0.0000E+00  0.0000E+00  0.0000E+00
     -5.404  0.0000E+00  0.0000E+00  0.0000E+00
     -5.333  0.0000E+00  0.0000E+00  0.0000E+00
     -5.262  0.0000E+00  0.0000E+00  0.0000E+00
     -5.191  0.0000E+00  0.0000E+00  0.0000E+00
     -5.120  0.0000E+00  0.0000E+00  0.0000E+00
     -5.049  0.0000E+00  0.0000E+00  0.0000E+00
     -4.979  0.0000E+00  0.0000E+00  0.0000E+00
     -4.908  0.0000E+00  0.0000E+00  0.0000E+00
     -4.837  0.0000E+00  0.0000E+00  0.0000E+00
     -4.766  0.0000E+00  0.0000E+00  0.0000E+00
     -4.695  0.0000E+00  0.0000E+00  0.0000E+00
     -4.624  0.0000E+00  0.0000E+00  0.0000E+00
     -4.554  0.0000E+00  0.0000E+00  0.0000E+00
     -4.483  0.0000E+00  0.0000E+00  0.0000E+00
     -4.412  0.0000E+00  0.0000E+00  0.0000E+00
     -4.341  0.0000E+00  0.0000E+00  0.0000E+00
     -4.270  0.0000E+00  0.0000E+00  0.0000E+00
     -4.199  0.0000E+00  0.0000E+00  0.0000E+00
     -4.128  0.0000E+00  0.0000E+00  0.0000E+00
     -4.058  0.0000E+00  0.0000E+00  0.0000E+00
     -3.987  0.0000E+00  0.0000E+00  0.0000E+00
     -3.916  0.0000E+00  0.0000E+00  0.0000E+00
     -3.845  0.0000E+00  0.0000E+00  0.0000E+00
     -3.774  0.0000E+00  0.0000E+00  0.0000E+00
     -3.703  0.0000E+00  0.0000E+00  0.0000E+00