    8    8  100    1
  0.3394927E+02  0.6476000E-09  0.6476000E-09  0.6476000E-09  0.5000000E-15
  1.000000000000000E-004
  CAR 
 Name                                    
     72     10     48
 
  0.0000000E+00  0.0000000E+00  0.0000000E+00  0.1562500E-01
    1       -9.043099
    2       -8.602399
    3       -8.602399
    4       -8.602399
    5       -6.305387
    6       -6.305387
    7       -6.305387
    8       -6.172062
    9       -6.172062
   10       -6.172062
   11       -6.172062
   12       -6.172062
   13       -6.172062
   14       -6.169538
   15       -6.169538
   16       -6.169538
   17       -6.090391
   18       -6.090391
   19       -6.064895
   20       -6.064895
   21       -6.064895
   22       -5.669221
   23       -5.669221
   24       -5.669221
   25       -2.223424
   26       -2.223424
   27       -2.223424
   28        0.126827
   29        0.126827
   30        0.126827
   31        0.126827
   32        0.126827
   33        0.126827
   34        1.779650
   35        1.779650
   36        1.779650
   37        2.355111
   38        4.447708
   39        4.447708
   40        4.447708
   41        4.524369
   42        4.524369
   43        4.524369
   44        6.418705
   45        6.418705
   46        6.418705
   47        9.152108
   48       10.280778
 
  0.2500000E+00  0.0000000E+00  0.0000000E+00  0.9375000E-01
    1       -8.976668
    2       -8.663550
    3       -8.603033
    4       -8.603033
    5       -6.287420
    6       -6.287420
    7       -6.261018
    8       -6.193275
    9       -6.193275
   10       -6.191049
   11       -6.191049
   12       -6.189669
   13       -6.189669
   14       -6.161669
   15       -6.139181
   16       -6.139181
   17       -6.095354
   18       -6.086674
   19       -6.073094
   20       -6.073094
   21       -6.068621
   22       -5.823267
   23       -5.636835
   24       -5.636835
   25       -2.168249
   26       -2.168249
   27       -1.795703
   28       -0.091138
   29       -0.091138
   30       -0.022014
   31       -0.022014
   32        0.315441
   33        0.315441
   34        0.546558
   35        1.454195
   36        1.454195
   37        3.619925
   38        4.474054
   39        4.820512
   40        5.018549
   41        5.018549
   42        5.176294
   43        5.176294
   44        5.848230
   45        6.932184
   46        6.932184
   47        9.053908
   48        9.053909
 
  0.5000000E+00  0.0000000E+00  0.0000000E+00  0.4687500E-01
    1       -8.817524
    2       -8.817524
    3       -8.603705
    4       -8.603705
    5       -6.241948
    6       -6.241948
    7       -6.241948
    8       -6.241948
    9       -6.205557
   10       -6.205557
   11       -6.197618
   12       -6.197618
   13       -6.161139
   14       -6.161139
   15       -6.114016
   16       -6.114016
   17       -6.088576
   18       -6.088576
   19       -6.077651
   20       -6.077651
   21       -6.057562
   22       -6.057562
   23       -5.605984
   24       -5.605984
   25       -2.105148
   26       -2.105148
   27       -0.768060
   28       -0.768060
   29       -0.297014
   30       -0.297014
   31       -0.155992
   32       -0.155992
   33        0.824066
   34        0.824066
   35        0.824066
   36        0.824066
   37        4.593371
   38        4.593371
   39        5.167921
   40        5.167921
   41        5.803433
   42        5.803433
   43        6.477772
   44        6.477772
   45        7.260162
   46        7.260162
   47        8.100557
   48        8.100557
 
  0.2500000E+00  0.2500000E+00  0.0000000E+00  0.1875000E+00
    1       -8.919815
    2       -8.654723
    3       -8.654723
    4       -8.611997
    5       -6.286142
    6       -6.275569
    7       -6.210316
    8       -6.209905
    9       -6.209905
   10       -6.205222
   11       -6.205222
   12       -6.194869
   13       -6.192128
   14       -6.136359
   15       -6.136359
   16       -6.126488
   17       -6.095866
   18       -6.085349
   19       -6.078562
   20       -6.074093
   21       -6.074093
   22       -5.768720
   23       -5.768720
   24       -5.635189
   25       -2.125122
   26       -1.870875
   27       -1.870875
   28       -0.493841
   29       -0.172107
   30        0.006625
   31        0.006625
   32        0.339684
   33        0.339684
   34        0.412462
   35        1.102511
   36        1.614211
   37        3.880834
   38        4.696902
   39        5.026483
   40        5.026483
   41        5.386524
   42        5.386524
   43        6.210746
   44        6.261441
   45        6.721355
   46        7.174600
   47        7.795644
   48        7.795644
 
  0.5000000E+00  0.2500000E+00  0.0000000E+00  0.1875000E+00
    1       -8.784719
    2       -8.784719
    3       -8.633424
    4       -8.633424
    5       -6.252683
    6       -6.252683
    7       -6.242927
    8       -6.242927
    9       -6.220177
   10       -6.220177
   11       -6.209326
   12       -6.209326
   13       -6.124316
   14       -6.124316
   15       -6.109314
   16       -6.109314
   17       -6.087885
   18       -6.087885
   19       -6.081922
   20       -6.081922
   21       -6.003709
   22       -6.003709
   23       -5.675195
   24       -5.675195
   25       -2.017941
   26       -2.017941
   27       -1.133081
   28       -1.133081
   29       -0.443411
   30       -0.443411
   31        0.452594
   32        0.452594
   33        0.464947
   34        0.464947
   35        1.058361
   36        1.058361
   37        4.698743
   38        4.698743
   39        5.278348
   40        5.278348
   41        5.810935
   42        5.810935
   43        6.724641
   44        6.724641
   45        7.147413
   46        7.147413
   47        7.292914
   48        7.292914
 
  0.5000000E+00  0.5000000E+00  0.0000000E+00  0.4687500E-01
    1       -8.707502
    2       -8.707502
    3       -8.707502
    4       -8.707502
    5       -6.239956
    6       -6.239956
    7       -6.239956
    8       -6.239956
    9       -6.237465
   10       -6.237465
   11       -6.237465
   12       -6.237465
   13       -6.096220
   14       -6.096220
   15       -6.096220
   16       -6.096220
   17       -6.094773
   18       -6.094773
   19       -6.094773
   20       -6.094773
   21       -5.843559
   22       -5.843559
   23       -5.843559
   24       -5.843559
   25       -1.685915
   26       -1.685915
   27       -1.685915
   28       -1.685915
   29       -0.129603
   30       -0.129603
   31       -0.129603
   32       -0.129603
   33        1.069366
   34        1.069366
   35        1.069366
   36        1.069366
   37        4.778887
   38        4.778887
   39        4.778887
   40        4.778887
   41        6.972001
   42        6.972001
   43        6.972001
   44        6.972001
   45        7.334759
   46        7.334759
   47        7.334759
   48        7.334759
 
  0.2500000E+00  0.2500000E+00  0.2500000E+00  0.1250000E+00
    1       -8.872661
    2       -8.654497
    3       -8.654497
    4       -8.654497
    5       -6.275987
    6       -6.275987
    7       -6.224813
    8       -6.224813
    9       -6.224813
   10       -6.210909
   11       -6.210909
   12       -6.210909
   13       -6.126103
   14       -6.121587
   15       -6.121587
   16       -6.121587
   17       -6.090454
   18       -6.090454
   19       -6.076855
   20       -6.076855
   21       -6.076855
   22       -5.737873
   23       -5.737873
   24       -5.737873
   25       -2.006352
   26       -2.006352
   27       -2.006352
   28       -0.780779
   29       -0.075373
   30       -0.075373
   31       -0.075373
   32        0.562368
   33        0.562368
   34        0.562368
   35        1.404110
   36        1.404110
   37        3.653566
   38        4.710767
   39        4.710767
   40        4.710767
   41        6.213505
   42        6.213505
   43        6.213505
   44        6.929061
   45        6.929061
   46        7.026459
   47        7.907374
   48        7.907374
 
  0.5000000E+00  0.2500000E+00  0.2500000E+00  0.1875000E+00
    1       -8.761231
    2       -8.761231
    3       -8.654270
    4       -8.654270
    5       -6.255962
    6       -6.255962
    7       -6.247354
    8       -6.247354
    9       -6.231998
   10       -6.231998
   11       -6.222276
   12       -6.222276
   13       -6.107143
   14       -6.107143
   15       -6.102125
   16       -6.102125
   17       -6.085308
   18       -6.085308
   19       -6.080498
   20       -6.080498
   21       -5.949493
   22       -5.949493
   23       -5.707371
   24       -5.707371
   25       -2.133226
   26       -2.133226
   27       -1.551268
   28       -1.551268
   29       -0.071381
   30       -0.071381
   31        0.663071
   32        0.663071
   33        0.833714
   34        0.833714
   35        0.954401
   36        0.954401
   37        4.232806
   38        4.232806
   39        4.866907
   40        4.866907
   41        6.416259
   42        6.416259
   43        6.440109
   44        6.440109
   45        7.528687
   46        7.528687
   47        7.630081
   48        7.630081
 
  0.5000000E+00  0.5000000E+00  0.2500000E+00  0.9375000E-01
    1       -8.706420
    2       -8.706420
    3       -8.706420
    4       -8.706420
    5       -6.246838
    6       -6.246838
    7       -6.246838
    8       -6.246838
    9       -6.245984
   10       -6.245984
   11       -6.245984
   12       -6.245984
   13       -6.089251
   14       -6.089251
   15       -6.089251
   16       -6.089251
   17       -6.088064
   18       -6.088064
   19       -6.088064
   20       -6.088064
   21       -5.816241
   22       -5.816241
   23       -5.816241
   24       -5.816241
   25       -2.039226
   26       -2.039226
   27       -2.039226
   28       -2.039226
   29        0.478802
   30        0.478802
   31        0.478802
   32        0.478802
   33        1.082668
   34        1.082668
   35        1.082668
   36        1.082668
   37        4.179576
   38        4.179576
   39        4.179576
   40        4.179576
   41        6.775377
   42        6.775377
   43        6.775377
   44        6.775377
   45        7.236317
   46        7.236317
   47        7.236317
   48        7.236317
 
  0.5000000E+00  0.5000000E+00  0.5000000E+00  0.1562500E-01
    1       -8.705312
    2       -8.705312
    3       -8.705312
    4       -8.705312
    5       -6.253150
    6       -6.253150
    7       -6.253150
    8       -6.253150
    9       -6.253150
   10       -6.253150
   11       -6.253150
   12       -6.253150
   13       -6.082842
   14       -6.082842
   15       -6.082842
   16       -6.082842
   17       -6.082842
   18       -6.082842
   19       -6.082842
   20       -6.082842
   21       -5.787631
   22       -5.787631
   23       -5.787631
   24       -5.787631
   25       -2.289328
   26       -2.289328
   27       -2.289328
   28       -2.289328
   29        1.096177
   30        1.096177
   31        1.096177
   32        1.096177
   33        1.096177
   34        1.096177
   35        1.096177
   36        1.096177
   37        3.530790
   38        3.530790
   39        3.530790
   40        3.530790
   41        6.986438
   42        6.986438
   43        6.986438
   44        6.986438
   45        6.986438
   46        6.986438
   47        6.986438
   48        6.986438
