       N       E                     dE             d eps       ncg     rms          rms(c)
DAV:   1     0.457561235175E+03    0.45756E+03   -0.31788E+04   960   0.127E+03
DAV:   2     0.533839378087E+01   -0.45222E+03   -0.43836E+03  1080   0.311E+02
DAV:   3    -0.196390599775E+02   -0.24977E+02   -0.24848E+02  1144   0.728E+01
DAV:   4    -0.200000010323E+02   -0.36094E+00   -0.36079E+00  1168   0.762E+00
DAV:   5    -0.200046313274E+02   -0.46303E-02   -0.46302E-02  1088   0.943E-01    0.112E+01
DAV:   6    -0.191349063579E+02    0.86972E+00   -0.18862E+00  1024   0.977E+00    0.909E+00
DAV:   7    -0.190842302084E+02    0.50676E-01   -0.74259E-01  1064   0.317E+00    0.321E+00
DAV:   8    -0.190844254739E+02   -0.19527E-03   -0.65970E-02  1032   0.192E+00    0.119E+00
DAV:   9    -0.190856989741E+02   -0.12735E-02   -0.78068E-03  1064   0.621E-01    0.285E-01
DAV:  10    -0.190855736920E+02    0.12528E-03   -0.12194E-03  1048   0.245E-01    0.130E-01
DAV:  11    -0.190856988460E+02   -0.12515E-03   -0.59869E-04  1080   0.137E-01    0.420E-02
DAV:  12    -0.190857069035E+02   -0.80576E-05   -0.70866E-05  1072   0.627E-02    0.262E-02
DAV:  13    -0.190857202628E+02   -0.13359E-04   -0.36976E-05  1008   0.177E-02    0.446E-02
DAV:  14    -0.190857184539E+02    0.18089E-05   -0.96378E-06   904   0.158E-02    0.847E-03
DAV:  15    -0.190857192338E+02   -0.77992E-06   -0.18017E-06   840   0.413E-03
   1 F= -.19085719E+02 E0= -.19085719E+02  d E =-.190857E+02
       N       E                     dE             d eps       ncg     rms          rms(c)
DAV:   1    -0.237694755998E+02   -0.46838E+01   -0.10243E+02  1024   0.732E+01    0.204E+01
DAV:   2    -0.198348971761E+02    0.39346E+01   -0.10070E+01   992   0.296E+01    0.661E+00
DAV:   3    -0.193772415585E+02    0.45766E+00   -0.96653E-01  1000   0.613E+00    0.608E+00
DAV:   4    -0.192393764322E+02    0.13787E+00   -0.21730E-01   976   0.166E+00    0.133E+00
DAV:   5    -0.192328937627E+02    0.64827E-02   -0.16165E-02   992   0.747E-01    0.638E-01
DAV:   6    -0.192323515288E+02    0.54223E-03   -0.32806E-03  1024   0.275E-01    0.303E-01
DAV:   7    -0.192325627575E+02   -0.21123E-03   -0.51290E-04  1016   0.106E-01    0.654E-02
DAV:   8    -0.192326304430E+02   -0.67686E-04   -0.12996E-04  1024   0.655E-02    0.150E-02
DAV:   9    -0.192326472685E+02   -0.16825E-04   -0.32694E-05  1008   0.396E-02    0.139E-02
DAV:  10    -0.192326488393E+02   -0.15708E-05   -0.31222E-06   800   0.731E-03    0.293E-03
DAV:  11    -0.192326485611E+02    0.27816E-06   -0.57968E-07   632   0.392E-03
   2 F= -.19232649E+02 E0= -.19232649E+02  d E =-.146929E+00
       N       E                     dE             d eps       ncg     rms          rms(c)
DAV:   1    -0.194490401208E+02   -0.21639E+00   -0.43960E+00  1032   0.144E+01    0.331E+00
DAV:   2    -0.192638451935E+02    0.18519E+00   -0.53675E-01  1016   0.606E+00    0.103E+00
DAV:   3    -0.192454837273E+02    0.18361E-01   -0.48374E-02   968   0.120E+00    0.882E-01
DAV:   4    -0.192424339523E+02    0.30498E-02   -0.58465E-03   984   0.334E-01    0.158E-01
DAV:   5    -0.192421615560E+02    0.27240E-03   -0.14789E-03  1008   0.275E-01    0.113E-01
DAV:   6    -0.192421914512E+02   -0.29895E-04   -0.21308E-04  1048   0.937E-02    0.506E-02
DAV:   7    -0.192421844265E+02    0.70248E-05   -0.31063E-05  1048   0.409E-02    0.123E-02
DAV:   8    -0.192421861138E+02   -0.16873E-05   -0.46825E-06   888   0.932E-03    0.605E-03
DAV:   9    -0.192421862374E+02   -0.12363E-06   -0.40102E-07   664   0.267E-03
   3 F= -.19242186E+02 E0= -.19242186E+02  d E =-.156467E+00
