 vasp.5.3.5 31Mar14 (build Mar 26 2015 15:03:36) complex                        
  
 executed on             LinuxIFC date 2015.12.16  11:33:19
 running on    8 total cores
 distrk:  each k-point on    8 cores,    1 groups
 distr:  one band on NCORES_PER_BAND=   1 cores,    8 groups


--------------------------------------------------------------------------------------------------------


 INCAR:
 POTCAR:    PAW_PBE Cd 06Sep2000                  
 POTCAR:    PAW_PBE Te 08Apr2002                  

 ----------------------------------------------------------------------------- 
|                                                                             |
|           W    W    AA    RRRRR   N    N  II  N    N   GGGG   !!!           |
|           W    W   A  A   R    R  NN   N  II  NN   N  G    G  !!!           |
|           W    W  A    A  R    R  N N  N  II  N N  N  G       !!!           |
|           W WW W  AAAAAA  RRRRR   N  N N  II  N  N N  G  GGG   !            |
|           WW  WW  A    A  R   R   N   NN  II  N   NN  G    G                |
|           W    W  A    A  R    R  N    N  II  N    N   GGGG   !!!           |
|                                                                             |
|      For optimal performance we recommend to set                            |
|        NCORE= 4 - approx SQRT( number of cores)                             |
|      NCORE specifies how many cores store one orbital (NPAR=cpu/NCORE).     |
|      This setting can  greatly improve the performance of VASP for DFT.     |
|      The default, NPAR=number of cores might be grossly inefficient         |
|      on modern multi-core architectures or massively parallel machines.     |
|      Do your own testing !!!!                                               |
|      Unfortunately you need to use the default for GW and RPA calculations. |
|      (for HF NCORE is supported but not extensively tested yet)             |
|                                                                             |
 ----------------------------------------------------------------------------- 

 POTCAR:    PAW_PBE Cd 06Sep2000                  
   VRHFIN =Cd : s2 d10                                                          
   LEXCH  = PE                                                                  
   EATOM  =  1293.1815 eV,   95.0462 Ry                                         
                                                                                
   TITEL  = PAW_PBE Cd 06Sep2000                                                
   LULTRA =        F    use ultrasoft PP ?                                      
   IUNSCR =        1    unscreen: 0-lin 1-nonlin 2-no                           
   RPACOR =    2.000    partial core radius                                     
   POMASS =  112.411; ZVAL   =   12.000    mass and valenz                      
   RCORE  =    2.300    outmost cutoff radius                                   
   RWIGS  =    2.980; RWIGS  =    1.577    wigner-seitz radius (au A)           
   ENMAX  =  274.336; ENMIN  =  205.752 eV                                      
   RCLOC  =    2.054    cutoff for local pot                                    
   LCOR   =        T    correct aug charges                                     
   LPAW   =        T    paw PP                                                  
   EAUG   =  456.106                                                            
   DEXC   =    0.000                                                            
   RMAX   =    2.358    core radius for proj-oper                               
   RAUG   =    1.300    factor for augmentation sphere                          
   RDEP   =    2.450    radius for radial grids                                 
   RDEPT  =    1.955    core radius for aug-charge                              
                                                                                
   Atomic configuration                                                         
   12 entries                                                                   
     n  l   j            E        occ.                                          
     1  0  0.50    -26519.7817   2.0000                                         
     2  0  0.50     -3936.9612   2.0000                                         
     2  1  1.50     -3532.2230   6.0000                                         
     3  0  0.50      -733.7908   2.0000                                         
     3  1  1.50      -601.0792   6.0000                                         
     3  2  2.50      -393.5307  10.0000                                         
     4  0  0.50      -105.8977   2.0000                                         
     4  1  1.50       -66.9488   6.0000                                         
     4  2  2.50       -11.7331  10.0000                                         
     5  0  0.50        -5.6592   2.0000                                         
     5  1  0.50        -1.3606   0.0000                                         
     4  3  2.50        -1.3606   0.0000                                         
   Description                                                                  
     l       E           TYP  RCUT    TYP  RCUT                                 
     2    -11.7331479     23  2.300                                             
     2    -13.0937305     23  2.300                                             
     0     -5.6591502     23  2.300                                             
     0     -1.5561433     23  2.300                                             
     1     -2.7211652     23  2.300                                             
     1      8.3548275     23  2.300                                             
  local pseudopotential read in
  partial core-charges read in
  partial kinetic energy density read in
  atomic valenz-charges read in
  non local Contribution for L=           2  read in
    real space projection operators read in
  non local Contribution for L=           2  read in
    real space projection operators read in
  non local Contribution for L=           0  read in
    real space projection operators read in
  non local Contribution for L=           0  read in
    real space projection operators read in
  non local Contribution for L=           1  read in
    real space projection operators read in
  non local Contribution for L=           1  read in
    real space projection operators read in
    PAW grid and wavefunctions read in
 
   number of l-projection  operators is LMAX  =           6
   number of lm-projection operators is LMMAX =          18
 
 POTCAR:    PAW_PBE Te 08Apr2002                  
   VRHFIN =Te: s2p4                                                             
   LEXCH  = PE                                                                  
   EATOM  =   223.2721 eV,   16.4100 Ry                                         
                                                                                
   TITEL  = PAW_PBE Te 08Apr2002                                                
   LULTRA =        F    use ultrasoft PP ?                                      
   IUNSCR =        1    unscreen: 0-lin 1-nonlin 2-no                           
   RPACOR =    2.200    partial core radius                                     
   POMASS =  127.600; ZVAL   =    6.000    mass and valenz                      
   RCORE  =    2.300    outmost cutoff radius                                   
   RWIGS  =    2.900; RWIGS  =    1.535    wigner-seitz radius (au A)           
   ENMAX  =  174.982; ENMIN  =  131.236 eV                                      
   ICORE  =        3    local potential                                         
   LCOR   =        T    correct aug charges                                     
   LPAW   =        T    paw PP                                                  
   EAUG   =  368.792                                                            
   DEXC   =    0.000                                                            
   RMAX   =    2.345    core radius for proj-oper                               
   RAUG   =    1.300    factor for augmentation sphere                          
   RDEP   =    2.397    radius for radial grids                                 
   RDEPT  =    2.174    core radius for aug-charge                              
                                                                                
   Atomic configuration                                                         
   13 entries                                                                   
     n  l   j            E        occ.                                          
     1  0  0.50    -31621.2075   2.0000                                         
     2  0  0.50     -4848.7941   2.0000                                         
     2  1  1.50     -4352.1960   6.0000                                         
     3  0  0.50      -964.9612   2.0000                                         
     3  1  1.50      -803.6179   6.0000                                         
     3  2  2.50      -559.8710  10.0000                                         
     4  0  0.50      -164.3522   2.0000                                         
     4  1  1.50      -114.3756   6.0000                                         
     4  2  2.50       -41.6483  10.0000                                         
     5  0  0.50       -15.1072   2.0000                                         
     5  1  0.50        -5.9526   4.0000                                         
     5  2  1.50        -5.4423   0.0000                                         
     4  3  2.50        -5.4423   0.0000                                         
   Description                                                                  
     l       E           TYP  RCUT    TYP  RCUT                                 
     0    -15.1072389     23  2.300                                             
     0    -16.4678215     23  2.300                                             
     1     -5.9526306     23  2.300                                             
     1     -2.4873968     23  2.300                                             
     2     -5.4423304     23  2.300                                             
     3     -1.3605826     23  2.300                                             
  local pseudopotential read in
  partial core-charges read in
  partial kinetic energy density read in
  atomic valenz-charges read in
  non local Contribution for L=           0  read in
    real space projection operators read in
  non local Contribution for L=           0  read in
    real space projection operators read in
  non local Contribution for L=           1  read in
    real space projection operators read in
  non local Contribution for L=           1  read in
    real space projection operators read in
  non local Contribution for L=           2  read in
    real space projection operators read in
    PAW grid and wavefunctions read in
 
   number of l-projection  operators is LMAX  =           5
   number of lm-projection operators is LMMAX =          13
 
  PAW_PBE Cd 06Sep2000                  :
 energy of atom  1       EATOM=-1293.1815
 kinetic energy error for atom=    0.0063 (will be added to EATOM!!)
  PAW_PBE Te 08Apr2002                  :
 energy of atom  2       EATOM= -223.2721
 kinetic energy error for atom=    0.0007 (will be added to EATOM!!)
 
 
 POSCAR: Cd1 Te1                                 
  positions in direct lattice
  velocities in cartesian coordinates
 exchange correlation table for  LEXCH =        8
   RHO(1)=    0.500       N(1)  =     2000
   RHO(2)=  100.500       N(2)  =     4000
 


--------------------------------------------------------------------------------------------------------


 ion  position               nearest neighbor table
   1  0.000  0.000  0.000-   5 2.80   6 2.80   7 2.80   8 2.80
   2  0.000  0.500  0.500-   5 2.80   6 2.80   7 2.80   8 2.80
   3  0.500  0.000  0.500-   5 2.80   6 2.80   7 2.80   8 2.80
   4  0.500  0.500  0.000-   5 2.80   6 2.80   7 2.80   8 2.80
   5  0.250  0.250  0.250-   1 2.80   2 2.80   3 2.80   4 2.80
   6  0.750  0.750  0.250-   1 2.80   2 2.80   3 2.80   4 2.80
   7  0.750  0.250  0.750-   1 2.80   2 2.80   3 2.80   4 2.80
   8  0.250  0.750  0.750-   1 2.80   2 2.80   3 2.80   4 2.80
 
  LATTYP: Found a simple cubic cell.
 ALAT       =     6.4759998322
  
  Lattice vectors:
  
 A1 = (   6.4759998322,   0.0000000000,   0.0000000000)
 A2 = (   0.0000000000,   6.4759998322,   0.0000000000)
 A3 = (   0.0000000000,   0.0000000000,   6.4759998322)


Analysis of symmetry for initial positions (statically):
=====================================================================
 Subroutine PRICEL returns following result:
 
  LATTYP: Found a face centered cubic cell.
 ALAT       =     6.4759998322
  
  Lattice vectors:
  
 A1 = (   3.2379999161,   3.2379999161,  -0.0000000000)
 A2 = (   3.2379999161,   0.0000000000,  -3.2379999161)
 A3 = (   0.0000000000,   3.2379999161,  -3.2379999161)
 
   4 primitive cells build up your supercell.
 

 Routine SETGRP: Setting up the symmetry group for a 
 simple cubic supercell.


 Subroutine GETGRP returns: Found 24 space group operations
 (whereof 24 operations were pure point group operations)
 out of a pool of 48 trial point group operations.


The static configuration has the point symmetry T_d .


Analysis of symmetry for dynamics (positions and initial velocities):
=====================================================================
 Subroutine PRICEL returns following result:
 
  LATTYP: Found a face centered cubic cell.
 ALAT       =     6.4759998322
  
  Lattice vectors:
  
 A1 = (   3.2379999161,   3.2379999161,  -0.0000000000)
 A2 = (   3.2379999161,   0.0000000000,  -3.2379999161)
 A3 = (   0.0000000000,   3.2379999161,  -3.2379999161)
 
   4 primitive cells build up your supercell.
 

 Routine SETGRP: Setting up the symmetry group for a 
 simple cubic supercell.


 Subroutine GETGRP returns: Found 24 space group operations
 (whereof 24 operations were pure point group operations)
 out of a pool of 48 trial point group operations.


The dynamic configuration has the point symmetry T_d .
 
 
 KPOINTS: Automatic mesh                          

Automatic generation of k-mesh.
Space group operators:
 irot       det(A)        alpha          n_x          n_y          n_z        tau_x        tau_y        tau_z
    1     1.000000     0.000000     1.000000     0.000000     0.000000     0.000000     0.000000     0.000000
    2     1.000000   120.000000    -0.577350    -0.577350    -0.577350     0.000000     0.000000     0.000000
    3     1.000000   120.000000     0.577350     0.577350     0.577350     0.000000     0.000000     0.000000
    4    -1.000000    90.000000     0.000000     0.000000    -1.000000     0.000000     0.000000     0.000000
    5    -1.000000   180.000000     0.000000     0.707107     0.707107     0.000000     0.000000     0.000000
    6    -1.000000    90.000000     0.000000     1.000000     0.000000     0.000000     0.000000     0.000000
    7     1.000000   179.999999     0.000000     0.000000     1.000000     0.000000     0.000000     0.000000
    8     1.000000   120.000000    -0.577350     0.577350     0.577350     0.000000     0.000000     0.000000
    9     1.000000   120.000000    -0.577350     0.577350    -0.577350     0.000000     0.000000     0.000000
   10    -1.000000    90.000000     0.000000     0.000000     1.000000     0.000000     0.000000     0.000000
   11    -1.000000    90.000000    -1.000000     0.000000     0.000000     0.000000     0.000000     0.000000
   12    -1.000000   180.000000     0.707107     0.000000     0.707107     0.000000     0.000000     0.000000
   13     1.000000   120.000000     0.577350    -0.577350     0.577350     0.000000     0.000000     0.000000
   14     1.000000   120.000000    -0.577350    -0.577350     0.577350     0.000000     0.000000     0.000000
   15     1.000000   180.000000     1.000000     0.000000     0.000000     0.000000     0.000000     0.000000
   16    -1.000000    90.000000     0.000000    -1.000000     0.000000     0.000000     0.000000     0.000000
   17    -1.000000   180.000000     0.707107     0.707107     0.000000     0.000000     0.000000     0.000000
   18    -1.000000    90.000000     1.000000     0.000000     0.000000     0.000000     0.000000     0.000000
   19     1.000000   120.000000     0.577350    -0.577350    -0.577350     0.000000     0.000000     0.000000
   20     1.000000   180.000000     0.000000     1.000000     0.000000     0.000000     0.000000     0.000000
   21     1.000000   120.000000     0.577350     0.577350    -0.577350     0.000000     0.000000     0.000000
   22    -1.000000   180.000000     0.000000    -0.707107     0.707107     0.000000     0.000000     0.000000
   23    -1.000000   180.000000     0.707107    -0.707107     0.000000     0.000000     0.000000     0.000000
   24    -1.000000   180.000000     0.707107     0.000000    -0.707107     0.000000     0.000000     0.000000
 
 Subroutine IBZKPT returns following result:
 ===========================================
 
 Found     10 irreducible k-points:
 
 Following reciprocal coordinates:
            Coordinates               Weight
  0.000000  0.000000  0.000000      1.000000
  0.250000  0.000000  0.000000      6.000000
  0.500000  0.000000  0.000000      3.000000
  0.250000  0.250000  0.000000     12.000000
  0.500000  0.250000  0.000000     12.000000
  0.500000  0.500000  0.000000      3.000000
  0.250000  0.250000  0.250000      8.000000
  0.500000  0.250000  0.250000     12.000000
  0.500000  0.500000  0.250000      6.000000
  0.500000  0.500000  0.500000      1.000000
 
 Following cartesian coordinates:
            Coordinates               Weight
  0.000000  0.000000  0.000000      1.000000
  0.038604  0.000000  0.000000      6.000000
  0.077208  0.000000  0.000000      3.000000
  0.038604  0.038604  0.000000     12.000000
  0.077208  0.038604  0.000000     12.000000
  0.077208  0.077208  0.000000      3.000000
  0.038604  0.038604  0.038604      8.000000
  0.077208  0.038604  0.038604     12.000000
  0.077208  0.077208  0.038604      6.000000
  0.077208  0.077208  0.077208      1.000000
 


--------------------------------------------------------------------------------------------------------




 Dimension of arrays:
   k-points           NKPTS =     10   k-points in BZ     NKDIM =     10   number of bands    NBANDS=     48
   number of dos      NEDOS =    301   number of ions     NIONS =      8
   non local maximal  LDIM  =      6   non local SUM 2l+1 LMDIM =     18
   total plane-waves  NPLWV =  46656
   max r-space proj   IRMAX =      1   max aug-charges    IRDMAX=  10190
   dimension x,y,z NGX =    36 NGY =   36 NGZ =   36
   dimension x,y,z NGXF=    72 NGYF=   72 NGZF=   72
   support grid    NGXF=    72 NGYF=   72 NGZF=   72
   ions per type =               4   4
 NGX,Y,Z   is equivalent  to a cutoff of   9.24,  9.24,  9.24 a.u.
 NGXF,Y,Z  is equivalent  to a cutoff of  18.48, 18.48, 18.48 a.u.


 I would recommend the setting:
   dimension x,y,z NGX =    35 NGY =   35 NGZ =   35
 SYSTEM =  Name                                    
 POSCAR =  Cd1 Te1                                 

 Startparameter for this run:
   NWRITE =      2    write-flag & timer
   PREC   = normal    normal or accurate (medium, high low for compatibility)
   ISTART =      0    job   : 0-new  1-cont  2-samecut
   ICHARG =      2    charge: 1-file 2-atom 10-const
   ISPIN  =      1    spin polarized calculation?
   LNONCOLLINEAR =      F non collinear calculations
   LSORBIT =      F    spin-orbit coupling
   INIWAV =      1    electr: 0-lowe 1-rand  2-diag
   LASPH  =      F    aspherical Exc in radial PAW
   METAGGA=      F    non-selfconsistent MetaGGA calc.

 Electronic Relaxation 1
   ENCUT  =  500.0 eV  36.75 Ry    6.06 a.u.  11.81 11.81 11.81*2*pi/ulx,y,z
   ENINI  =  500.0     initial cutoff
   ENAUG  =  456.1 eV  augmentation charge cutoff
   NELM   =     60;   NELMIN=  2; NELMDL=  0     # of ELM steps 
   EDIFF  = 0.1E-05   stopping-criterion for ELM
   LREAL  =      F    real-space projection
   NLSPLINE    = F    spline interpolate recip. space projectors
   LCOMPAT=      F    compatible to vasp.4.4
   GGA_COMPAT  = T    GGA compatible to vasp.4.4-vasp.4.6
   LMAXPAW     = -100 max onsite density
   LMAXMIX     =    2 max onsite mixed and CHGCAR
   VOSKOWN=      0    Vosko Wilk Nusair interpolation
   ROPT   =    0.00000   0.00000
 Ionic relaxation
   EDIFFG = -.5E-02   stopping-criterion for IOM
   NSW    =    100    number of steps for IOM
   NBLOCK =      1;   KBLOCK =    100    inner block; outer block 
   IBRION =      2    ionic relax: 0-MD 1-quasi-New 2-CG
   NFREE  =      1    steps in history (QN), initial steepest desc. (CG)
   ISIF   =      3    stress and relaxation
   IWAVPR =     11    prediction:  0-non 1-charg 2-wave 3-comb
   ISYM   =      2    0-nonsym 1-usesym 2-fastsym
   LCORR  =      T    Harris-Foulkes like correction to forces

   POTIM  = 0.5000    time-step for ionic-motion
   TEIN   =    0.0    initial temperature
   TEBEG  =    0.0;   TEEND  =   0.0 temperature during run
   SMASS  =  -3.00    Nose mass-parameter (am)
   estimated Nose-frequenzy (Omega)   =  0.10E-29 period in steps =****** mass=  -0.958E-27a.u.
   SCALEE = 1.0000    scale energy and forces
   NPACO  =    256;   APACO  = 16.0  distance and # of slots for P.C.
   PSTRESS=    0.0 pullay stress

  Mass of Ions in am
   POMASS = 112.41127.60
  Ionic Valenz
   ZVAL   =  12.00  6.00
  Atomic Wigner-Seitz radii
   RWIGS  =  -1.00 -1.00
  virtual crystal weights 
   VCA    =   1.00  1.00
   NELECT =      72.0000    total number of electrons
   NUPDOWN=      -1.0000    fix difference up-down

 DOS related values:
   EMIN   =  10.00;   EMAX   =-10.00  energy-range for DOS
   EFERMI =   0.00
   ISMEAR =     0;   SIGMA  =   0.01  broadening in eV -4-tet -1-fermi 0-gaus

 Electronic relaxation 2 (details)
   IALGO  =     38    algorithm
   LDIAG  =      T    sub-space diagonalisation (order eigenvalues)
   LSUBROT=      F    optimize rotation matrix (better conditioning)
   TURBO    =      0    0=normal 1=particle mesh
   IRESTART =      0    0=no restart 2=restart with 2 vectors
   NREBOOT  =      0    no. of reboots
   NMIN     =      0    reboot dimension
   EREF     =   0.00    reference energy to select bands
   IMIX   =      4    mixing-type and parameters
     AMIX     =   0.40;   BMIX     =  1.00
     AMIX_MAG =   1.60;   BMIX_MAG =  1.00
     AMIN     =   0.01
     WC   =   100.;   INIMIX=   1;  MIXPRE=   1;  MAXMIX= -45

 Intra band minimization:
   WEIMIN = 0.0010     energy-eigenvalue tresh-hold
   EBREAK =  0.52E-08  absolut break condition
   DEPER  =   0.30     relativ break condition  

   TIME   =   0.40     timestep for ELM

  volume/ion in A,a.u.               =      33.95       229.10
  Fermi-wavevector in a.u.,A,eV,Ry     =   1.051668  1.987365 15.048132  1.106006
  Thomas-Fermi vector in A             =   2.186721
 
 Write flags
   LWAVE  =      T    write WAVECAR
   LCHARG =      T    write CHGCAR
   LVTOT  =      F    write LOCPOT, total local potential
   LVHAR  =      F    write LOCPOT, Hartree potential only
   LELF   =      F    write electronic localiz. function (ELF)
   LORBIT =     10    0 simple, 1 ext, 2 COOP (PROOUT)


 Dipole corrections
   LMONO  =      F    monopole corrections only (constant potential shift)
   LDIPOL =      F    correct potential (dipole corrections)
   IDIPOL =      0    1-x, 2-y, 3-z, 4-all directions 
   EPSILON=  1.0000000 bulk dielectric constant

 Core level calculations are selected ICORELEVEL =  1
 Exchange correlation treatment:
   GGA     =    PE    GGA type
   LEXCH   =     8    internal setting for exchange type
   VOSKOWN=      0    Vosko Wilk Nusair interpolation
   LHFCALC =     F    Hartree Fock is set to
   LHFONE  =     F    Hartree Fock one center treatment
   AEXX    =    0.0000 exact exchange contribution

 Linear response parameters
   LEPSILON=     F    determine dielectric tensor
   LRPA    =     F    only Hartree local field effects (RPA)
   LNABLA  =     F    use nabla operator in PAW spheres
   LVEL    =     F    velocity operator in full k-point grid
   LINTERFAST=   F  fast interpolation
   KINTER  =     0    interpolate to denser k-point grid
   CSHIFT  =0.1000    complex shift for real part using Kramers Kronig
   OMEGAMAX=  -1.0    maximum frequency
   DEG_THRESHOLD= 0.2000000E-02 threshold for treating states as degnerate
   RTIME   =    0.100 relaxation time in fs

 Orbital magnetization related:
   ORBITALMAG=     F  switch on orbital magnetization
   LCHIMAG   =     F  perturbation theory with respect to B field
   DQ        =  0.001000  dq finite difference perturbation B field



--------------------------------------------------------------------------------------------------------


 conjugate gradient relaxation of ions
 charge density and potential will be updated during run
 non-spin polarized calculation
 Variant of blocked Davidson
 Davidson routine will perform the subspace rotation
 perform sub-space diagonalisation
    after iterative eigenvector-optimisation
 modified Broyden-mixing scheme, WC =      100.0
 initial mixing is a Kerker type mixing with AMIX =  0.4000 and BMIX =      1.0000
 Hartree-type preconditioning will be used
 using additional bands           12
 reciprocal scheme for non local part
 use partial core corrections
 calculate Harris-corrections to forces 
   (improved forces if not selfconsistent)
 use gradient corrections 
 use of overlap-Matrix (Vanderbilt PP)
 Gauss-broadening in eV      SIGMA  =   0.01


--------------------------------------------------------------------------------------------------------


  energy-cutoff  :      500.00
  volume of cell :      271.59
      direct lattice vectors                 reciprocal lattice vectors
     6.475999832  0.000000000  0.000000000     0.154416310  0.000000000  0.000000000
     0.000000000  6.475999832  0.000000000     0.000000000  0.154416310  0.000000000
     0.000000000  0.000000000  6.475999832     0.000000000  0.000000000  0.154416310

  length of vectors
     6.475999832  6.475999832  6.475999832     0.154416310  0.154416310  0.154416310


 
 k-points in units of 2pi/SCALE and weight: Automatic mesh                          
   0.00000000  0.00000000  0.00000000       0.016
   0.03860408  0.00000000  0.00000000       0.094
   0.07720816  0.00000000  0.00000000       0.047
   0.03860408  0.03860408  0.00000000       0.188
   0.07720816  0.03860408  0.00000000       0.188
   0.07720816  0.07720816  0.00000000       0.047
   0.03860408  0.03860408  0.03860408       0.125
   0.07720816  0.03860408  0.03860408       0.188
   0.07720816  0.07720816  0.03860408       0.094
   0.07720816  0.07720816  0.07720816       0.016
 
 k-points in reciprocal lattice and weights: Automatic mesh                          
   0.00000000  0.00000000  0.00000000       0.016
   0.25000000  0.00000000  0.00000000       0.094
   0.50000000  0.00000000  0.00000000       0.047
   0.25000000  0.25000000  0.00000000       0.188
   0.50000000  0.25000000  0.00000000       0.188
   0.50000000  0.50000000  0.00000000       0.047
   0.25000000  0.25000000  0.25000000       0.125
   0.50000000  0.25000000  0.25000000       0.188
   0.50000000  0.50000000  0.25000000       0.094
   0.50000000  0.50000000  0.50000000       0.016
 
 position of ions in fractional coordinates (direct lattice) 
   0.00000000  0.00000000  0.00000000
   0.00000000  0.50000000  0.50000000
   0.50000000  0.00000000  0.50000000
   0.50000000  0.50000000  0.00000000
   0.25000000  0.25000000  0.25000000
   0.75000000  0.75000000  0.25000000
   0.75000000  0.25000000  0.75000000
   0.25000000  0.75000000  0.75000000
 
 position of ions in cartesian coordinates  (Angst):
   0.00000000  0.00000000  0.00000000
   0.00000000  3.23799992  3.23799992
   3.23799992  0.00000000  3.23799992
   3.23799992  3.23799992  0.00000000
   1.61899996  1.61899996  1.61899996
   4.85699987  4.85699987  1.61899996
   4.85699987  1.61899996  4.85699987
   1.61899996  4.85699987  4.85699987
 


--------------------------------------------------------------------------------------------------------


 k-point  1 :   0.0000 0.0000 0.0000  plane waves:    6931
 k-point  2 :   0.2500 0.0000 0.0000  plane waves:    6896
 k-point  3 :   0.5000 0.0000 0.0000  plane waves:    6920
 k-point  4 :   0.2500 0.2500 0.0000  plane waves:    6889
 k-point  5 :   0.5000 0.2500 0.0000  plane waves:    6904
 k-point  6 :   0.5000 0.5000 0.0000  plane waves:    6872
 k-point  7 :   0.2500 0.2500 0.2500  plane waves:    6899
 k-point  8 :   0.5000 0.2500 0.2500  plane waves:    6906
 k-point  9 :   0.5000 0.5000 0.2500  plane waves:    6920
 k-point 10 :   0.5000 0.5000 0.5000  plane waves:    6872

 maximum and minimum number of plane-waves per node :      6931     6872

 maximum number of plane-waves:      6931
 maximum index in each direction: 
   IXMAX=   11   IYMAX=   11   IZMAX=   11
   IXMIN=  -12   IYMIN=  -12   IZMIN=  -12

 WARNING: aliasing errors must be expected set NGX to  48 to avoid them
 WARNING: aliasing errors must be expected set NGY to  48 to avoid them
 WARNING: aliasing errors must be expected set NGZ to  48 to avoid them
 aliasing errors are usually negligible using standard VASP settings
 and one can safely disregard these warnings

 serial   3D FFT for wavefunctions
 parallel 3D FFT for charge:
    minimum data exchange during FFTs selected (reduces bandwidth)


 total amount of memory used by VASP on root node    64133. kBytes
========================================================================

   base      :      30000. kBytes
   nonl-proj :      20863. kBytes
   fftplans  :       1814. kBytes
   grid      :       4551. kBytes
   one-center:        124. kBytes
   wavefun   :       6781. kBytes
 
     INWAV:  cpu time    0.00: real time    0.00
 Broyden mixing: mesh for mixing (old mesh)
   NGX = 23   NGY = 23   NGZ = 23
  (NGX  = 72   NGY  = 72   NGZ  = 72)
  gives a total of  12167 points

 initial charge density was supplied:
 charge density of overlapping atoms calculated
 number of electron      72.0000000 magnetization 
 keeping initial charge density in first step


--------------------------------------------------------------------------------------------------------


 Maximum index for augmentation-charges         1223 (set IRDMAX)


--------------------------------------------------------------------------------------------------------


 First call to EWALD:  gamma=   0.274
 Maximum number of real-space cells 3x 3x 3
 Maximum number of reciprocal cells 3x 3x 3

 FEWALD executed in parallel
    FEWALD:  cpu time    0.00: real time    0.00


----------------------------------------- Iteration    1(   1)  ---------------------------------------


    POTLOK:  cpu time    0.03: real time    0.07
    SETDIJ:  cpu time    0.00: real time    0.01
     EDDAV:  cpu time    1.04: real time    2.18
       DOS:  cpu time    0.00: real time    0.00
    --------------------------------------------
      LOOP:  cpu time    1.08: real time    2.26

 eigenvalue-minimisations  :   960
 total energy-change (2. order) : 0.4575612E+03  (-0.3178815E+04)
 number of electron      72.0000000 magnetization 
 augmentation part       72.0000000 magnetization 

 Free energy of the ion-electron system (eV)
  ---------------------------------------------------
  alpha Z        PSCENC =       201.31243334
  Ewald energy   TEWEN  =     -4183.64966357
  -Hartree energ DENC   =     -2038.11829410
  -exchange      EXHF   =         0.00000000
  -V(xc)+E(xc)   XCENC  =       -90.44953710
  PAW double counting   =      5617.72092748    -5328.65891765
  entropy T*S    EENTRO =        -0.00056292
  eigenvalues    EBANDS =       213.61838652
  atomic energy  EATOM  =      6065.78646317
  ---------------------------------------------------
  free energy    TOTEN  =       457.56123517 eV

  energy without entropy =      457.56179809  energy(sigma->0) =      457.56151663


--------------------------------------------------------------------------------------------------------




----------------------------------------- Iteration    1(   2)  ---------------------------------------


     EDDAV:  cpu time    1.14: real time    2.37
       DOS:  cpu time    0.00: real time    0.00
    --------------------------------------------
      LOOP:  cpu time    1.14: real time    2.37

 eigenvalue-minimisations  :  1080
 total energy-change (2. order) :-0.4522228E+03  (-0.4383645E+03)
 number of electron      72.0000000 magnetization 
 augmentation part       72.0000000 magnetization 

 Free energy of the ion-electron system (eV)
  ---------------------------------------------------
  alpha Z        PSCENC =       201.31243334
  Ewald energy   TEWEN  =     -4183.64966357
  -Hartree energ DENC   =     -2038.11829410
  -exchange      EXHF   =         0.00000000
  -V(xc)+E(xc)   XCENC  =       -90.44953710
  PAW double counting   =      5617.72092748    -5328.65891765
  entropy T*S    EENTRO =        -0.00000000
  eigenvalues    EBANDS =      -238.60501779
  atomic energy  EATOM  =      6065.78646317
  ---------------------------------------------------
  free energy    TOTEN  =         5.33839378 eV

  energy without entropy =        5.33839378  energy(sigma->0) =        5.33839378


--------------------------------------------------------------------------------------------------------




----------------------------------------- Iteration    1(   3)  ---------------------------------------


     EDDAV:  cpu time    1.17: real time    2.67
       DOS:  cpu time    0.00: real time    0.00
    --------------------------------------------
      LOOP:  cpu time    1.18: real time    2.67

 eigenvalue-minimisations  :  1144
 total energy-change (2. order) :-0.2497745E+02  (-0.2484769E+02)
 number of electron      72.0000000 magnetization 
 augmentation part       72.0000000 magnetization 

 Free energy of the ion-electron system (eV)
  ---------------------------------------------------
  alpha Z        PSCENC =       201.31243334
  Ewald energy   TEWEN  =     -4183.64966357
  -Hartree energ DENC   =     -2038.11829410
  -exchange      EXHF   =         0.00000000
  -V(xc)+E(xc)   XCENC  =       -90.44953710
  PAW double counting   =      5617.72092748    -5328.65891765
  entropy T*S    EENTRO =        -0.00000000
  eigenvalues    EBANDS =      -263.58247154
  atomic energy  EATOM  =      6065.78646317
  ---------------------------------------------------
  free energy    TOTEN  =       -19.63905998 eV

  energy without entropy =      -19.63905998  energy(sigma->0) =      -19.63905998


--------------------------------------------------------------------------------------------------------




----------------------------------------- Iteration    1(   4)  ---------------------------------------


     EDDAV:  cpu time    1.21: real time    2.63
       DOS:  cpu time    0.00: real time    0.00
    --------------------------------------------
      LOOP:  cpu time    1.21: real time    2.63

 eigenvalue-minimisations  :  1168
 total energy-change (2. order) :-0.3609411E+00  (-0.3607932E+00)
 number of electron      72.0000000 magnetization 
 augmentation part       72.0000000 magnetization 

 Free energy of the ion-electron system (eV)
  ---------------------------------------------------
  alpha Z        PSCENC =       201.31243334
  Ewald energy   TEWEN  =     -4183.64966357
  -Hartree energ DENC   =     -2038.11829410
  -exchange      EXHF   =         0.00000000
  -V(xc)+E(xc)   XCENC  =       -90.44953710
  PAW double counting   =      5617.72092748    -5328.65891765
  entropy T*S    EENTRO =        -0.00000000
  eigenvalues    EBANDS =      -263.94341260
  atomic energy  EATOM  =      6065.78646317
  ---------------------------------------------------
  free energy    TOTEN  =       -20.00000103 eV

  energy without entropy =      -20.00000103  energy(sigma->0) =      -20.00000103


--------------------------------------------------------------------------------------------------------




----------------------------------------- Iteration    1(   5)  ---------------------------------------


     EDDAV:  cpu time    1.15: real time    2.50
       DOS:  cpu time    0.00: real time    0.01
    CHARGE:  cpu time    0.06: real time    0.11
    MIXING:  cpu time    0.00: real time    0.00
    --------------------------------------------
      LOOP:  cpu time    1.21: real time    2.62

 eigenvalue-minimisations  :  1088
 total energy-change (2. order) :-0.4630295E-02  (-0.4630157E-02)
 number of electron      71.9999743 magnetization 
 augmentation part       17.8750866 magnetization 

 Broyden mixing:
  rms(total) = 0.11246E+01    rms(broyden)= 0.11246E+01
  rms(prec ) = 0.13508E+01
  weight for this iteration     100.00

 Free energy of the ion-electron system (eV)
  ---------------------------------------------------
  alpha Z        PSCENC =       201.31243334
  Ewald energy   TEWEN  =     -4183.64966357
  -Hartree energ DENC   =     -2038.11829410
  -exchange      EXHF   =         0.00000000
  -V(xc)+E(xc)   XCENC  =       -90.44953710
  PAW double counting   =      5617.72092748    -5328.65891765
  entropy T*S    EENTRO =        -0.00000000
  eigenvalues    EBANDS =      -263.94804289
  atomic energy  EATOM  =      6065.78646317
  ---------------------------------------------------
  free energy    TOTEN  =       -20.00463133 eV

  energy without entropy =      -20.00463133  energy(sigma->0) =      -20.00463133


--------------------------------------------------------------------------------------------------------




----------------------------------------- Iteration    1(   6)  ---------------------------------------


    POTLOK:  cpu time    0.03: real time    0.07
    SETDIJ:  cpu time    0.00: real time    0.01
     EDDAV:  cpu time    1.09: real time    2.46
       DOS:  cpu time    0.00: real time    0.01
    CHARGE:  cpu time    0.06: real time    0.13
    MIXING:  cpu time    0.00: real time    0.00
    --------------------------------------------
      LOOP:  cpu time    1.20: real time    2.69

 eigenvalue-minimisations  :  1024
 total energy-change (2. order) : 0.8697250E+00  (-0.1886219E+00)
 number of electron      71.9999741 magnetization 
 augmentation part       18.2076361 magnetization 

 Broyden mixing:
  rms(total) = 0.90885E+00    rms(broyden)= 0.90884E+00
  rms(prec ) = 0.95383E+00
  weight for this iteration     100.00

 eigenvalues of (default mixing * dielectric matrix)
  average eigenvalue GAMMA=   2.2500
  2.2500

 Free energy of the ion-electron system (eV)
  ---------------------------------------------------
  alpha Z        PSCENC =       201.31243334
  Ewald energy   TEWEN  =     -4183.64966357
  -Hartree energ DENC   =     -2014.85846567
  -exchange      EXHF   =         0.00000000
  -V(xc)+E(xc)   XCENC  =       -90.71934535
  PAW double counting   =      6044.95644674    -5753.98990996
  entropy T*S    EENTRO =        -0.00000000
  eigenvalues    EBANDS =      -287.97286505
  atomic energy  EATOM  =      6065.78646317
  ---------------------------------------------------
  free energy    TOTEN  =       -19.13490636 eV

  energy without entropy =      -19.13490636  energy(sigma->0) =      -19.13490636


--------------------------------------------------------------------------------------------------------




----------------------------------------- Iteration    1(   7)  ---------------------------------------


    POTLOK:  cpu time    0.03: real time    0.08
    SETDIJ:  cpu time    0.00: real time    0.01
     EDDAV:  cpu time    1.11: real time    2.65
       DOS:  cpu time    0.00: real time    0.01
    CHARGE:  cpu time    0.06: real time    0.10
    MIXING:  cpu time    0.00: real time    0.00
    --------------------------------------------
      LOOP:  cpu time    1.20: real time    2.86

 eigenvalue-minimisations  :  1064
 total energy-change (2. order) : 0.5067615E-01  (-0.7425911E-01)
 number of electron      71.9999741 magnetization 
 augmentation part       18.3515189 magnetization 

 Broyden mixing:
  rms(total) = 0.32074E+00    rms(broyden)= 0.32074E+00
  rms(prec ) = 0.33404E+00
  weight for this iteration     100.00

 eigenvalues of (default mixing * dielectric matrix)
  average eigenvalue GAMMA=   1.7103
  0.9218  2.4989

 Free energy of the ion-electron system (eV)
  ---------------------------------------------------
  alpha Z        PSCENC =       201.31243334
  Ewald energy   TEWEN  =     -4183.64966357
  -Hartree energ DENC   =     -2009.89732058
  -exchange      EXHF   =         0.00000000
  -V(xc)+E(xc)   XCENC  =       -90.46723195
  PAW double counting   =      6575.88285601    -6285.08636095
  entropy T*S    EENTRO =        -0.00000000
  eigenvalues    EBANDS =      -292.96540566
  atomic energy  EATOM  =      6065.78646317
  ---------------------------------------------------
  free energy    TOTEN  =       -19.08423021 eV

  energy without entropy =      -19.08423021  energy(sigma->0) =      -19.08423021


--------------------------------------------------------------------------------------------------------




----------------------------------------- Iteration    1(   8)  ---------------------------------------


    POTLOK:  cpu time    0.03: real time    0.07
    SETDIJ:  cpu time    0.00: real time    0.01
     EDDAV:  cpu time    1.09: real time    2.36
       DOS:  cpu time    0.00: real time    0.00
    CHARGE:  cpu time    0.06: real time    0.12
    MIXING:  cpu time    0.00: real time    0.01
    --------------------------------------------
      LOOP:  cpu time    1.19: real time    2.57

 eigenvalue-minimisations  :  1032
 total energy-change (2. order) :-0.1952654E-03  (-0.6596977E-02)
 number of electron      71.9999741 magnetization 
 augmentation part       18.3124533 magnetization 

 Broyden mixing:
  rms(total) = 0.11894E+00    rms(broyden)= 0.11894E+00
  rms(prec ) = 0.12445E+00
  weight for this iteration     100.00

 eigenvalues of (default mixing * dielectric matrix)
  average eigenvalue GAMMA=   1.7293
  2.5935  1.2972  1.2972

 Free energy of the ion-electron system (eV)
  ---------------------------------------------------
  alpha Z        PSCENC =       201.31243334
  Ewald energy   TEWEN  =     -4183.64966357
  -Hartree energ DENC   =     -2012.56722366
  -exchange      EXHF   =         0.00000000
  -V(xc)+E(xc)   XCENC  =       -90.26311965
  PAW double counting   =      6831.26990519    -6541.03217537
  entropy T*S    EENTRO =        -0.00000000
  eigenvalues    EBANDS =      -289.94104492
  atomic energy  EATOM  =      6065.78646317
  ---------------------------------------------------
  free energy    TOTEN  =       -19.08442547 eV

  energy without entropy =      -19.08442547  energy(sigma->0) =      -19.08442547


--------------------------------------------------------------------------------------------------------




----------------------------------------- Iteration    1(   9)  ---------------------------------------


    POTLOK:  cpu time    0.03: real time    0.07
    SETDIJ:  cpu time    0.00: real time    0.01
     EDDAV:  cpu time    1.12: real time    2.37
       DOS:  cpu time    0.00: real time    0.01
    CHARGE:  cpu time    0.06: real time    0.11
    MIXING:  cpu time    0.00: real time    0.00
    --------------------------------------------
      LOOP:  cpu time    1.21: real time    2.57

 eigenvalue-minimisations  :  1064
 total energy-change (2. order) :-0.1273500E-02  (-0.7806807E-03)
 number of electron      71.9999741 magnetization 
 augmentation part       18.3213290 magnetization 

 Broyden mixing:
  rms(total) = 0.28535E-01    rms(broyden)= 0.28535E-01
  rms(prec ) = 0.32261E-01
  weight for this iteration     100.00

 eigenvalues of (default mixing * dielectric matrix)
  average eigenvalue GAMMA=   1.5485
  2.5081  1.6070  1.2738  0.8051

 Free energy of the ion-electron system (eV)
  ---------------------------------------------------
  alpha Z        PSCENC =       201.31243334
  Ewald energy   TEWEN  =     -4183.64966357
  -Hartree energ DENC   =     -2011.11262099
  -exchange      EXHF   =         0.00000000
  -V(xc)+E(xc)   XCENC  =       -90.22405029
  PAW double counting   =      6988.57249254    -6698.25934088
  entropy T*S    EENTRO =        -0.00000000
  eigenvalues    EBANDS =      -291.51141229
  atomic energy  EATOM  =      6065.78646317
  ---------------------------------------------------
  free energy    TOTEN  =       -19.08569897 eV

  energy without entropy =      -19.08569897  energy(sigma->0) =      -19.08569897


--------------------------------------------------------------------------------------------------------




----------------------------------------- Iteration    1(  10)  ---------------------------------------


    POTLOK:  cpu time    0.03: real time    0.06
    SETDIJ:  cpu time    0.00: real time    0.01
     EDDAV:  cpu time    1.10: real time    2.35
       DOS:  cpu time    0.00: real time    0.00
    CHARGE:  cpu time    0.06: real time    0.11
    MIXING:  cpu time    0.00: real time    0.00
    --------------------------------------------
      LOOP:  cpu time    1.20: real time    2.55

 eigenvalue-minimisations  :  1048
 total energy-change (2. order) : 0.1252821E-03  (-0.1219371E-03)
 number of electron      71.9999741 magnetization 
 augmentation part       18.3150905 magnetization 

 Broyden mixing:
  rms(total) = 0.13035E-01    rms(broyden)= 0.13035E-01
  rms(prec ) = 0.14360E-01
  weight for this iteration     100.00

 eigenvalues of (default mixing * dielectric matrix)
  average eigenvalue GAMMA=   1.6691
  2.3675  2.3675  1.1001  1.1001  1.4103

 Free energy of the ion-electron system (eV)
  ---------------------------------------------------
  alpha Z        PSCENC =       201.31243334
  Ewald energy   TEWEN  =     -4183.64966357
  -Hartree energ DENC   =     -2011.61628019
  -exchange      EXHF   =         0.00000000
  -V(xc)+E(xc)   XCENC  =       -90.20353926
  PAW double counting   =      6997.94793767    -6707.66687636
  entropy T*S    EENTRO =        -0.00000000
  eigenvalues    EBANDS =      -290.99604849
  atomic energy  EATOM  =      6065.78646317
  ---------------------------------------------------
  free energy    TOTEN  =       -19.08557369 eV

  energy without entropy =      -19.08557369  energy(sigma->0) =      -19.08557369


--------------------------------------------------------------------------------------------------------




----------------------------------------- Iteration    1(  11)  ---------------------------------------


    POTLOK:  cpu time    0.03: real time    0.06
    SETDIJ:  cpu time    0.00: real time    0.01
     EDDAV:  cpu time    1.13: real time    2.40
       DOS:  cpu time    0.00: real time    0.01
    CHARGE:  cpu time    0.06: real time    0.10
    MIXING:  cpu time    0.00: real time    0.00
    --------------------------------------------
      LOOP:  cpu time    1.22: real time    2.59

 eigenvalue-minimisations  :  1080
 total energy-change (2. order) :-0.1251540E-03  (-0.5986863E-04)
 number of electron      71.9999741 magnetization 
 augmentation part       18.3092670 magnetization 

 Broyden mixing:
  rms(total) = 0.41964E-02    rms(broyden)= 0.41963E-02
  rms(prec ) = 0.50813E-02
  weight for this iteration     100.00

 eigenvalues of (default mixing * dielectric matrix)
  average eigenvalue GAMMA=   1.5547
  2.2822  2.2822  1.7988  1.0813  1.0813  0.8022

 Free energy of the ion-electron system (eV)
  ---------------------------------------------------
  alpha Z        PSCENC =       201.31243334
  Ewald energy   TEWEN  =     -4183.64966357
  -Hartree energ DENC   =     -2012.18401196
  -exchange      EXHF   =         0.00000000
  -V(xc)+E(xc)   XCENC  =       -90.18081620
  PAW double counting   =      6989.27003072    -6698.98432191
  entropy T*S    EENTRO =        -0.00000000
  eigenvalues    EBANDS =      -290.45581244
  atomic energy  EATOM  =      6065.78646317
  ---------------------------------------------------
  free energy    TOTEN  =       -19.08569885 eV

  energy without entropy =      -19.08569885  energy(sigma->0) =      -19.08569885


--------------------------------------------------------------------------------------------------------




----------------------------------------- Iteration    1(  12)  ---------------------------------------


    POTLOK:  cpu time    0.03: real time    0.07
    SETDIJ:  cpu time    0.00: real time    0.01
     EDDAV:  cpu time    1.12: real time    2.37
       DOS:  cpu time    0.00: real time    0.01
    CHARGE:  cpu time    0.06: real time    0.10
    MIXING:  cpu time    0.00: real time    0.00
    --------------------------------------------
      LOOP:  cpu time    1.21: real time    2.56

 eigenvalue-minimisations  :  1072
 total energy-change (2. order) :-0.8057553E-05  (-0.7086601E-05)
 number of electron      71.9999741 magnetization 
 augmentation part       18.3103342 magnetization 

 Broyden mixing:
  rms(total) = 0.26160E-02    rms(broyden)= 0.26160E-02
  rms(prec ) = 0.28331E-02
  weight for this iteration     100.00

 eigenvalues of (default mixing * dielectric matrix)
  average eigenvalue GAMMA=   1.8212
  2.8436  2.8436  2.5559  1.3953  1.0252  1.0252  1.0594

 Free energy of the ion-electron system (eV)
  ---------------------------------------------------
  alpha Z        PSCENC =       201.31243334
  Ewald energy   TEWEN  =     -4183.64966357
  -Hartree energ DENC   =     -2012.10036438
  -exchange      EXHF   =         0.00000000
  -V(xc)+E(xc)   XCENC  =       -90.18070529
  PAW double counting   =      6993.08560892    -6702.79626757
  entropy T*S    EENTRO =        -0.00000000
  eigenvalues    EBANDS =      -290.54321152
  atomic energy  EATOM  =      6065.78646317
  ---------------------------------------------------
  free energy    TOTEN  =       -19.08570690 eV

  energy without entropy =      -19.08570690  energy(sigma->0) =      -19.08570690


--------------------------------------------------------------------------------------------------------




----------------------------------------- Iteration    1(  13)  ---------------------------------------


    POTLOK:  cpu time    0.03: real time    0.07
    SETDIJ:  cpu time    0.00: real time    0.01
     EDDAV:  cpu time    1.08: real time    2.35
       DOS:  cpu time    0.00: real time    0.01
    CHARGE:  cpu time    0.06: real time    0.10
    MIXING:  cpu time    0.00: real time    0.00
    --------------------------------------------
      LOOP:  cpu time    1.17: real time    2.54

 eigenvalue-minimisations  :  1008
 total energy-change (2. order) :-0.1335924E-04  (-0.3697650E-05)
 number of electron      71.9999741 magnetization 
 augmentation part       18.3110909 magnetization 

 Broyden mixing:
  rms(total) = 0.44617E-02    rms(broyden)= 0.44617E-02
  rms(prec ) = 0.46516E-02
  weight for this iteration     100.00

 eigenvalues of (default mixing * dielectric matrix)
  average eigenvalue GAMMA=   1.6984
  3.0186  2.4999  1.9996  1.9996  1.0648  1.0648  0.9700  0.9700

 Free energy of the ion-electron system (eV)
  ---------------------------------------------------
  alpha Z        PSCENC =       201.31243334
  Ewald energy   TEWEN  =     -4183.64966357
  -Hartree energ DENC   =     -2012.11273553
  -exchange      EXHF   =         0.00000000
  -V(xc)+E(xc)   XCENC  =       -90.18148473
  PAW double counting   =      6989.89146443    -6699.61154891
  entropy T*S    EENTRO =        -0.00000000
  eigenvalues    EBANDS =      -290.52064846
  atomic energy  EATOM  =      6065.78646317
  ---------------------------------------------------
  free energy    TOTEN  =       -19.08572026 eV

  energy without entropy =      -19.08572026  energy(sigma->0) =      -19.08572026


--------------------------------------------------------------------------------------------------------




----------------------------------------- Iteration    1(  14)  ---------------------------------------


    POTLOK:  cpu time    0.03: real time    0.06
    SETDIJ:  cpu time    0.00: real time    0.01
     EDDAV:  cpu time    1.00: real time    2.10
       DOS:  cpu time    0.00: real time    0.00
    CHARGE:  cpu time    0.06: real time    0.10
    MIXING:  cpu time    0.00: real time    0.00
    --------------------------------------------
      LOOP:  cpu time    1.09: real time    2.28

 eigenvalue-minimisations  :   904
 total energy-change (2. order) : 0.1808876E-05  (-0.9637824E-06)
 number of electron      71.9999741 magnetization 
 augmentation part       18.3106663 magnetization 

 Broyden mixing:
  rms(total) = 0.84747E-03    rms(broyden)= 0.84747E-03
  rms(prec ) = 0.86183E-03
  weight for this iteration     100.00

 eigenvalues of (default mixing * dielectric matrix)
  average eigenvalue GAMMA=   1.6006
  3.0558  2.4877  1.8694  1.8694  1.1247  1.1247  1.0408  1.0408  0.7926

 Free energy of the ion-electron system (eV)
  ---------------------------------------------------
  alpha Z        PSCENC =       201.31243334
  Ewald energy   TEWEN  =     -4183.64966357
  -Hartree energ DENC   =     -2012.15679548
  -exchange      EXHF   =         0.00000000
  -V(xc)+E(xc)   XCENC  =       -90.17881405
  PAW double counting   =      6991.32441363    -6701.04171486
  entropy T*S    EENTRO =        -0.00000000
  eigenvalues    EBANDS =      -290.48204063
  atomic energy  EATOM  =      6065.78646317
  ---------------------------------------------------
  free energy    TOTEN  =       -19.08571845 eV

  energy without entropy =      -19.08571845  energy(sigma->0) =      -19.08571845


--------------------------------------------------------------------------------------------------------




----------------------------------------- Iteration    1(  15)  ---------------------------------------


    POTLOK:  cpu time    0.03: real time    0.06
    SETDIJ:  cpu time    0.00: real time    0.01
     EDDAV:  cpu time    0.95: real time    2.07
       DOS:  cpu time    0.00: real time    0.00
    --------------------------------------------
      LOOP:  cpu time    1.02: real time    2.21

 eigenvalue-minimisations  :   840
 total energy-change (2. order) :-0.7799154E-06  (-0.1801733E-06)
 number of electron      71.9999741 magnetization 
 augmentation part       18.3106663 magnetization 

 Free energy of the ion-electron system (eV)
  ---------------------------------------------------
  alpha Z        PSCENC =       201.31243334
  Ewald energy   TEWEN  =     -4183.64966357
  -Hartree energ DENC   =     -2012.15930613
  -exchange      EXHF   =         0.00000000
  -V(xc)+E(xc)   XCENC  =       -90.17830581
  PAW double counting   =      6991.99650928    -6701.71270223
  entropy T*S    EENTRO =        -0.00000000
  eigenvalues    EBANDS =      -290.48114728
  atomic energy  EATOM  =      6065.78646317
  ---------------------------------------------------
  free energy    TOTEN  =       -19.08571923 eV

  energy without entropy =      -19.08571923  energy(sigma->0) =      -19.08571923


--------------------------------------------------------------------------------------------------------




 the core state eigenenergies are
   1-  1s -26513.5565  2s  -3930.7365  2p  -3525.9905  3s   -727.6095  3p   -594.8987
       3d   -387.3501  4s    -99.7923  4p    -60.8496
   2-  1s -26513.5565  2s  -3930.7365  2p  -3525.9905  3s   -727.6095  3p   -594.8987
       3d   -387.3501  4s    -99.7923  4p    -60.8496
   3-  1s -26513.5565  2s  -3930.7365  2p  -3525.9905  3s   -727.6095  3p   -594.8987
       3d   -387.3501  4s    -99.7923  4p    -60.8496
   4-  1s -26513.5565  2s  -3930.7365  2p  -3525.9905  3s   -727.6095  3p   -594.8987
       3d   -387.3501  4s    -99.7923  4p    -60.8496
   5-  1s -31612.9043  2s  -4840.4869  2p  -4343.8823  3s   -956.7062  3p   -795.3640
       3d   -551.6141  4s   -156.2165  4p   -106.2555  4d    -33.5785
   6-  1s -31612.9043  2s  -4840.4869  2p  -4343.8823  3s   -956.7062  3p   -795.3640
       3d   -551.6141  4s   -156.2165  4p   -106.2555  4d    -33.5785
   7-  1s -31612.9043  2s  -4840.4869  2p  -4343.8823  3s   -956.7062  3p   -795.3640
       3d   -551.6141  4s   -156.2165  4p   -106.2555  4d    -33.5785
   8-  1s -31612.9043  2s  -4840.4869  2p  -4343.8823  3s   -956.7062  3p   -795.3640
       3d   -551.6141  4s   -156.2165  4p   -106.2555  4d    -33.5785
 
 E-fermi :   2.4610     XC(G=0):  -8.5946     alpha+bet : -7.4457


 k-point     1 :       0.0000    0.0000    0.0000
  band No.  band energies     occupation 
      1      -8.8182      2.00000
      2      -8.2990      2.00000
      3      -8.2990      2.00000
      4      -8.2990      2.00000
      5      -5.9267      2.00000
      6      -5.9267      2.00000
      7      -5.9267      2.00000
      8      -5.7704      2.00000
      9      -5.7704      2.00000
     10      -5.7704      2.00000
     11      -5.7619      2.00000
     12      -5.7619      2.00000
     13      -5.7619      2.00000
     14      -5.7619      2.00000
     15      -5.7619      2.00000
     16      -5.7619      2.00000
     17      -5.6648      2.00000
     18      -5.6648      2.00000
     19      -5.6340      2.00000
     20      -5.6340      2.00000
     21      -5.6340      2.00000
     22      -5.1698      2.00000
     23      -5.1698      2.00000
     24      -5.1698      2.00000
     25      -1.9499      2.00000
     26      -1.9499      2.00000
     27      -1.9499      2.00000
     28       0.4963      2.00000
     29       0.4963      2.00000
     30       0.4963      2.00000
     31       0.4963      2.00000
     32       0.4963      2.00000
     33       0.4963      2.00000
     34       2.3685      2.00000
     35       2.3685      2.00000
     36       2.3685      2.00000
     37       3.1465      0.00000
     38       4.9701      0.00000
     39       4.9701      0.00000
     40       4.9701      0.00000
     41       5.0376      0.00000
     42       5.0376      0.00000
     43       5.0376      0.00000
     44       6.9684      0.00000
     45       6.9684      0.00000
     46       6.9684      0.00000
     47       9.8357      0.00000
     48      11.2234      0.00000

 k-point     2 :       0.2500    0.0000    0.0000
  band No.  band energies     occupation 
      1      -8.7402      2.00000
      2      -8.3710      2.00000
      3      -8.2999      2.00000
      4      -8.2999      2.00000
      5      -5.9048      2.00000
      6      -5.9048      2.00000
      7      -5.8804      2.00000
      8      -5.7906      2.00000
      9      -5.7906      2.00000
     10      -5.7885      2.00000
     11      -5.7885      2.00000
     12      -5.7835      2.00000
     13      -5.7835      2.00000
     14      -5.7610      2.00000
     15      -5.7267      2.00000
     16      -5.7267      2.00000
     17      -5.6711      2.00000
     18      -5.6603      2.00000
     19      -5.6444      2.00000
     20      -5.6444      2.00000
     21      -5.6385      2.00000
     22      -5.3655      2.00000
     23      -5.1276      2.00000
     24      -5.1276      2.00000
     25      -1.8926      2.00000
     26      -1.8926      2.00000
     27      -1.4513      2.00000
     28       0.2583      2.00000
     29       0.2583      2.00000
     30       0.3196      2.00000
     31       0.3196      2.00000
     32       0.7071      2.00000
     33       0.7071      2.00000
     34       1.1157      2.00000
     35       1.9916      2.00000
     36       1.9916      2.00000
     37       4.4225      0.00000
     38       5.0034      0.00000
     39       5.3793      0.00000
     40       5.6750      0.00000
     41       5.6750      0.00000
     42       5.6829      0.00000
     43       5.6829      0.00000
     44       6.3662      0.00000
     45       7.5390      0.00000
     46       7.5390      0.00000
     47       9.8360      0.00000
     48       9.8616      0.00000

 k-point     3 :       0.5000    0.0000    0.0000
  band No.  band energies     occupation 
      1      -8.5526      2.00000
      2      -8.5526      2.00000
      3      -8.3008      2.00000
      4      -8.3008      2.00000
      5      -5.8490      2.00000
      6      -5.8490      2.00000
      7      -5.8490      2.00000
      8      -5.8490      2.00000
      9      -5.8028      2.00000
     10      -5.8028      2.00000
     11      -5.7980      2.00000
     12      -5.7980      2.00000
     13      -5.7669      2.00000
     14      -5.7669      2.00000
     15      -5.6942      2.00000
     16      -5.6942      2.00000
     17      -5.6646      2.00000
     18      -5.6646      2.00000
     19      -5.6494      2.00000
     20      -5.6494      2.00000
     21      -5.6356      2.00000
     22      -5.6356      2.00000
     23      -5.0874      2.00000
     24      -5.0874      2.00000
     25      -1.8266      2.00000
     26      -1.8266      2.00000
     27      -0.3027      2.00000
     28      -0.3027      2.00000
     29       0.0345      2.00000
     30       0.0345      2.00000
     31       0.1619      2.00000
     32       0.1619      2.00000
     33       1.2771      2.00000
     34       1.2771      2.00000
     35       1.2771      2.00000
     36       1.2771      2.00000
     37       5.3118      0.00000
     38       5.3118      0.00000
     39       5.7083      0.00000
     40       5.7083      0.00000
     41       6.6321      0.00000
     42       6.6321      0.00000
     43       7.0511      0.00000
     44       7.0511      0.00000
     45       7.9362      0.00000
     46       7.9362      0.00000
     47       8.6604      0.00000
     48       8.6604      0.00000

 k-point     4 :       0.2500    0.2500    0.0000
  band No.  band energies     occupation 
      1      -8.6732      2.00000
      2      -8.3606      2.00000
      3      -8.3606      2.00000
      4      -8.3104      2.00000
      5      -5.9031      2.00000
      6      -5.8905      2.00000
      7      -5.8126      2.00000
      8      -5.8099      2.00000
      9      -5.8099      2.00000
     10      -5.8060      2.00000
     11      -5.8052      2.00000
     12      -5.8052      2.00000
     13      -5.7871      2.00000
     14      -5.7251      2.00000
     15      -5.7251      2.00000
     16      -5.7113      2.00000
     17      -5.6719      2.00000
     18      -5.6589      2.00000
     19      -5.6511      2.00000
     20      -5.6453      2.00000
     21      -5.6453      2.00000
     22      -5.2967      2.00000
     23      -5.2967      2.00000
     24      -5.1245      2.00000
     25      -1.8491      2.00000
     26      -1.5467      2.00000
     27      -1.5467      2.00000
     28      -0.1976      2.00000
     29       0.3212      2.00000
     30       0.3629      2.00000
     31       0.3629      2.00000
     32       0.7319      2.00000
     33       0.7319      2.00000
     34       0.8171      2.00000
     35       1.5883      2.00000
     36       2.1798      2.00000
     37       4.6646      0.00000
     38       5.2634      0.00000
     39       5.6996      0.00000
     40       5.6996      0.00000
     41       5.9380      0.00000
     42       5.9380      0.00000
     43       6.8516      0.00000
     44       6.8923      0.00000
     45       7.2939      0.00000
     46       7.8010      0.00000
     47       8.4516      0.00000
     48       8.4516      0.00000

 k-point     5 :       0.5000    0.2500    0.0000
  band No.  band energies     occupation 
      1      -8.5139      2.00000
      2      -8.5139      2.00000
      3      -8.3356      2.00000
      4      -8.3356      2.00000
      5      -5.8625      2.00000
      6      -5.8625      2.00000
      7      -5.8506      2.00000
      8      -5.8506      2.00000
      9      -5.8228      2.00000
     10      -5.8228      2.00000
     11      -5.8099      2.00000
     12      -5.8099      2.00000
     13      -5.7133      2.00000
     14      -5.7133      2.00000
     15      -5.6893      2.00000
     16      -5.6893      2.00000
     17      -5.6629      2.00000
     18      -5.6629      2.00000
     19      -5.6552      2.00000
     20      -5.6552      2.00000
     21      -5.5786      2.00000
     22      -5.5786      2.00000
     23      -5.1763      2.00000
     24      -5.1763      2.00000
     25      -1.7296      2.00000
     26      -1.7296      2.00000
     27      -0.7239      2.00000
     28      -0.7239      2.00000
     29      -0.1364      2.00000
     30      -0.1364      2.00000
     31       0.8590      2.00000
     32       0.8590      2.00000
     33       0.8728      2.00000
     34       0.8728      2.00000
     35       1.5468      2.00000
     36       1.5468      2.00000
     37       5.4954      0.00000
     38       5.4954      0.00000
     39       6.0060      0.00000
     40       6.0060      0.00000
     41       6.3602      0.00000
     42       6.3602      0.00000
     43       7.3520      0.00000
     44       7.3520      0.00000
     45       7.7937      0.00000
     46       7.7937      0.00000
     47       7.8615      0.00000
     48       7.8615      0.00000

 k-point     6 :       0.5000    0.5000    0.0000
  band No.  band energies     occupation 
      1      -8.4228      2.00000
      2      -8.4228      2.00000
      3      -8.4228      2.00000
      4      -8.4228      2.00000
      5      -5.8464      2.00000
      6      -5.8464      2.00000
      7      -5.8464      2.00000
      8      -5.8464      2.00000
      9      -5.8445      2.00000
     10      -5.8445      2.00000
     11      -5.8445      2.00000
     12      -5.8445      2.00000
     13      -5.6728      2.00000
     14      -5.6728      2.00000
     15      -5.6728      2.00000
     16      -5.6728      2.00000
     17      -5.6721      2.00000
     18      -5.6721      2.00000
     19      -5.6721      2.00000
     20      -5.6721      2.00000
     21      -5.3884      2.00000
     22      -5.3884      2.00000
     23      -5.3884      2.00000
     24      -5.3884      2.00000
     25      -1.3518      2.00000
     26      -1.3518      2.00000
     27      -1.3518      2.00000
     28      -1.3518      2.00000
     29       0.2135      2.00000
     30       0.2135      2.00000
     31       0.2135      2.00000
     32       0.2135      2.00000
     33       1.5586      2.00000
     34       1.5586      2.00000
     35       1.5586      2.00000
     36       1.5586      2.00000
     37       5.5136      0.00000
     38       5.5136      0.00000
     39       5.5136      0.00000
     40       5.5136      0.00000
     41       7.5807      0.00000
     42       7.5807      0.00000
     43       7.5807      0.00000
     44       7.5807      0.00000
     45       8.0364      0.00000
     46       8.0364      0.00000
     47       8.0364      0.00000
     48       8.0364      0.00000

 k-point     7 :       0.2500    0.2500    0.2500
  band No.  band energies     occupation 
      1      -8.6176      2.00000
      2      -8.3603      2.00000
      3      -8.3603      2.00000
      4      -8.3603      2.00000
      5      -5.8908      2.00000
      6      -5.8908      2.00000
      7      -5.8296      2.00000
      8      -5.8296      2.00000
      9      -5.8296      2.00000
     10      -5.8106      2.00000
     11      -5.8106      2.00000
     12      -5.8106      2.00000
     13      -5.7270      2.00000
     14      -5.7059      2.00000
     15      -5.7059      2.00000
     16      -5.7059      2.00000
     17      -5.6652      2.00000
     18      -5.6652      2.00000
     19      -5.6486      2.00000
     20      -5.6486      2.00000
     21      -5.6486      2.00000
     22      -5.2554      2.00000
     23      -5.2554      2.00000
     24      -5.2554      2.00000
     25      -1.7194      2.00000
     26      -1.7194      2.00000
     27      -1.7194      2.00000
     28      -0.3638      2.00000
     29       0.2819      2.00000
     30       0.2819      2.00000
     31       0.2819      2.00000
     32       0.9851      2.00000
     33       0.9851      2.00000
     34       0.9851      2.00000
     35       1.9379      2.00000
     36       1.9379      2.00000
     37       4.3629      0.00000
     38       5.3381      0.00000
     39       5.3381      0.00000
     40       5.3381      0.00000
     41       6.8806      0.00000
     42       6.8806      0.00000
     43       6.8806      0.00000
     44       7.5188      0.00000
     45       7.5188      0.00000
     46       7.7439      0.00000
     47       8.5542      0.00000
     48       8.5542      0.00000

 k-point     8 :       0.5000    0.2500    0.2500
  band No.  band energies     occupation 
      1      -8.4861      2.00000
      2      -8.4861      2.00000
      3      -8.3601      2.00000
      4      -8.3601      2.00000
      5      -5.8668      2.00000
      6      -5.8668      2.00000
      7      -5.8558      2.00000
      8      -5.8558      2.00000
      9      -5.8377      2.00000
     10      -5.8377      2.00000
     11      -5.8253      2.00000
     12      -5.8253      2.00000
     13      -5.6882      2.00000
     14      -5.6882      2.00000
     15      -5.6804      2.00000
     16      -5.6804      2.00000
     17      -5.6593      2.00000
     18      -5.6593      2.00000
     19      -5.6529      2.00000
     20      -5.6529      2.00000
     21      -5.5162      2.00000
     22      -5.5162      2.00000
     23      -5.2141      2.00000
     24      -5.2141      2.00000
     25      -1.8793      2.00000
     26      -1.8793      2.00000
     27      -1.2141      2.00000
     28      -1.2141      2.00000
     29       0.2951      2.00000
     30       0.2951      2.00000
     31       1.0964      2.00000
     32       1.0964      2.00000
     33       1.3030      2.00000
     34       1.3030      2.00000
     35       1.4264      2.00000
     36       1.4264      2.00000
     37       4.9534      0.00000
     38       4.9534      0.00000
     39       5.6098      0.00000
     40       5.6098      0.00000
     41       6.9655      0.00000
     42       6.9655      0.00000
     43       6.9990      0.00000
     44       6.9990      0.00000
     45       8.1599      0.00000
     46       8.1599      0.00000
     47       8.2870      0.00000
     48       8.2870      0.00000

 k-point     9 :       0.5000    0.5000    0.2500
  band No.  band energies     occupation 
      1      -8.4214      2.00000
      2      -8.4214      2.00000
      3      -8.4214      2.00000
      4      -8.4214      2.00000
      5      -5.8551      2.00000
      6      -5.8551      2.00000
      7      -5.8551      2.00000
      8      -5.8551      2.00000
      9      -5.8547      2.00000
     10      -5.8547      2.00000
     11      -5.8547      2.00000
     12      -5.8547      2.00000
     13      -5.6639      2.00000
     14      -5.6639      2.00000
     15      -5.6639      2.00000
     16      -5.6639      2.00000
     17      -5.6628      2.00000
     18      -5.6628      2.00000
     19      -5.6628      2.00000
     20      -5.6628      2.00000
     21      -5.3507      2.00000
     22      -5.3507      2.00000
     23      -5.3507      2.00000
     24      -5.3507      2.00000
     25      -1.7755      2.00000
     26      -1.7755      2.00000
     27      -1.7755      2.00000
     28      -1.7755      2.00000
     29       0.9056      2.00000
     30       0.9056      2.00000
     31       0.9056      2.00000
     32       0.9056      2.00000
     33       1.5743      2.00000
     34       1.5743      2.00000
     35       1.5743      2.00000
     36       1.5743      2.00000
     37       4.8877      0.00000
     38       4.8877      0.00000
     39       4.8877      0.00000
     40       4.8877      0.00000
     41       7.3244      0.00000
     42       7.3244      0.00000
     43       7.3244      0.00000
     44       7.3244      0.00000
     45       7.8292      0.00000
     46       7.8292      0.00000
     47       7.8292      0.00000
     48       7.8292      0.00000

 k-point    10 :       0.5000    0.5000    0.5000
  band No.  band energies     occupation 
      1      -8.4200      2.00000
      2      -8.4200      2.00000
      3      -8.4200      2.00000
      4      -8.4200      2.00000
      5      -5.8631      2.00000
      6      -5.8631      2.00000
      7      -5.8631      2.00000
      8      -5.8631      2.00000
      9      -5.8631      2.00000
     10      -5.8631      2.00000
     11      -5.8631      2.00000
     12      -5.8631      2.00000
     13      -5.6557      2.00000
     14      -5.6557      2.00000
     15      -5.6557      2.00000
     16      -5.6557      2.00000
     17      -5.6557      2.00000
     18      -5.6557      2.00000
     19      -5.6557      2.00000
     20      -5.6557      2.00000
     21      -5.3101      2.00000
     22      -5.3101      2.00000
     23      -5.3101      2.00000
     24      -5.3101      2.00000
     25      -2.0692      2.00000
     26      -2.0692      2.00000
     27      -2.0692      2.00000
     28      -2.0692      2.00000
     29       1.5902      2.00000
     30       1.5902      2.00000
     31       1.5902      2.00000
     32       1.5902      2.00000
     33       1.5902      2.00000
     34       1.5902      2.00000
     35       1.5902      2.00000
     36       1.5902      2.00000
     37       4.1897      0.00000
     38       4.1897      0.00000
     39       4.1897      0.00000
     40       4.1897      0.00000
     41       7.5551      0.00000
     42       7.5551      0.00000
     43       7.5551      0.00000
     44       7.5551      0.00000
     45       7.5551      0.00000
     46       7.5551      0.00000
     47       7.5551      0.00000
     48       7.5551      0.00000


--------------------------------------------------------------------------------------------------------


 soft charge-density along one line, spin component           1
         0         1         2         3         4         5         6         7         8         9
 total charge-density along one line
 
 pseudopotential strength for first ion, spin component:           1
-17.841  -0.000  -0.000  -0.000  -0.000 -17.884  -0.000  -0.000
 -0.000 -17.841   0.000   0.000   0.000  -0.000 -17.884   0.000
 -0.000   0.000 -17.842  -0.000   0.000  -0.000   0.000 -17.885
 -0.000   0.000  -0.000 -17.841  -0.000  -0.000   0.000  -0.000
 -0.000   0.000   0.000  -0.000 -17.842  -0.000   0.000   0.000
-17.884  -0.000  -0.000  -0.000  -0.000 -17.907  -0.000  -0.000
 -0.000 -17.884   0.000   0.000   0.000  -0.000 -17.907   0.000
 -0.000   0.000 -17.885  -0.000   0.000  -0.000   0.000 -17.908
 -0.000   0.000  -0.000 -17.884  -0.000  -0.000   0.000  -0.000
 -0.000   0.000   0.000  -0.000 -17.885  -0.000   0.000   0.000
 -0.000   0.000  -0.000   0.000   0.000  -0.000   0.000  -0.000
 -0.000   0.000  -0.000   0.000   0.000  -0.000   0.000  -0.000
 -0.000   0.000  -0.000  -0.003   0.000  -0.000   0.000  -0.000
 -0.003   0.000   0.000  -0.000   0.000  -0.003   0.000   0.000
  0.000  -0.003   0.000   0.000  -0.000   0.000  -0.003   0.000
 -0.000   0.000  -0.000  -0.003   0.000  -0.000   0.000  -0.000
 -0.003   0.000   0.000  -0.000   0.000  -0.002   0.000   0.000
  0.000  -0.003   0.000   0.000  -0.000   0.000  -0.002   0.000
 total augmentation occupancy for first ion, spin component:           1
  4.212   0.000   0.000   0.000  -0.000  -2.103  -0.000   0.000  -0.000   0.000  -0.000   0.000   0.000  -0.539   0.000  -0.000
  0.000   4.212  -0.000  -0.000  -0.000   0.000  -2.103  -0.000   0.000  -0.000   0.000  -0.000   0.000  -0.000  -0.539   0.000
  0.000  -0.000   2.641  -0.000   0.000   0.000  -0.000  -0.591  -0.000   0.000   0.000  -0.000   0.000   0.000   0.000   0.000
 -0.000  -0.000   0.000   4.212   0.000   0.000  -0.000   0.000  -2.103  -0.000  -0.000  -0.000  -0.539  -0.000  -0.000   0.081
 -0.000   0.000   0.000  -0.000   2.641   0.000   0.000   0.000  -0.000  -0.591   0.000   0.000  -0.000   0.000   0.000  -0.000
 -2.103  -0.000   0.000   0.000   0.000   1.990   0.000   0.000   0.000   0.000   0.000   0.000  -0.000   0.515  -0.000  -0.000
  0.000  -2.103  -0.000  -0.000   0.000   0.000   1.990   0.000   0.000  -0.000  -0.000  -0.000  -0.000  -0.000   0.515  -0.000
  0.000   0.000  -0.591   0.000  -0.000  -0.000  -0.000   0.535  -0.000   0.000  -0.000  -0.000   0.000  -0.000   0.000   0.000
 -0.000  -0.000   0.000  -2.103  -0.000   0.000  -0.000  -0.000   1.990   0.000  -0.000  -0.000   0.515  -0.000  -0.000  -0.091
  0.000   0.000   0.000   0.000  -0.591   0.000  -0.000  -0.000   0.000   0.535   0.000  -0.000   0.000  -0.000   0.000   0.000
 -0.000  -0.000   0.000   0.000  -0.000   0.000   0.000  -0.000  -0.000  -0.000   3.002  -0.786   0.000   0.000  -0.000  -0.000
 -0.000  -0.000  -0.000   0.000  -0.000   0.000   0.000  -0.000  -0.000  -0.000  -0.786   0.244  -0.000   0.000  -0.000  -0.000
 -0.000  -0.000   0.000  -0.539   0.000   0.000   0.000  -0.000   0.515   0.000   0.000   0.000   0.213  -0.000   0.000  -0.038
 -0.539   0.000   0.000   0.000   0.000   0.515   0.000   0.000   0.000  -0.000   0.000  -0.000  -0.000   0.213   0.000  -0.000
 -0.000  -0.539  -0.000  -0.000  -0.000  -0.000   0.515  -0.000   0.000  -0.000   0.000   0.000   0.000   0.000   0.213   0.000
  0.000   0.000   0.000   0.081  -0.000  -0.000  -0.000  -0.000  -0.091   0.000  -0.000  -0.000  -0.038   0.000   0.000   0.008
  0.081  -0.000  -0.000  -0.000   0.000  -0.091  -0.000   0.000   0.000   0.000  -0.000   0.000   0.000  -0.038   0.000  -0.000
  0.000   0.081   0.000   0.000   0.000  -0.000  -0.091   0.000   0.000  -0.000  -0.000  -0.000   0.000  -0.000  -0.038   0.000


------------------------ aborting loop because EDIFF is reached ----------------------------------------


 


 total charge     
 
# of ion     s       p       d       tot
----------------------------------------
  1        0.471   0.319   9.531  10.321
  2        0.471   0.319   9.531  10.321
  3        0.471   0.319   9.531  10.321
  4        0.471   0.319   9.531  10.321
  5        1.350   2.063   0.021   3.434
  6        1.350   2.063   0.021   3.434
  7        1.350   2.063   0.021   3.434
  8        1.350   2.063   0.021   3.434
------------------------------------------------
tot        7.285   9.527  38.209  55.021
 
    CHARGE:  cpu time    0.06: real time    0.11
    FORLOC:  cpu time    0.00: real time    0.00
    FORNL :  cpu time    0.33: real time    0.71
    STRESS:  cpu time    0.84: real time    1.78
    FORCOR:  cpu time    0.03: real time    0.06
    FORHAR:  cpu time    0.01: real time    0.02
    MIXING:  cpu time    0.00: real time    0.00
    OFIELD:  cpu time    0.00: real time    0.00

  FORCE on cell =-STRESS in cart. coord.  units (eV):
  Direction    XX          YY          ZZ          XY          YZ          ZX
  --------------------------------------------------------------------------------------
  Alpha Z   201.31243   201.31243   201.31243
  Ewald   -1394.55196 -1394.55196 -1394.55196     0.00000     0.00000    -0.00000
  Hartree   670.71839   670.71839   670.71839    -0.00000    -0.00000    -0.00000
  E(xc)    -349.71908  -349.71908  -349.71908     0.00000     0.00000    -0.00000
  Local     -69.34564   -69.34564   -69.34564     0.00000     0.00000    -0.00000
  n-local   107.63314   111.79511   108.29248    -2.23330    -1.94207    -0.79497
  augment    25.57786    25.57786    25.57786    -0.00000     0.00000     0.00000
  Kinetic   807.81826   813.93112   812.84393    -2.04442    -2.19575    -0.85495
  Fock        0.00000     0.00000     0.00000     0.00000     0.00000     0.00000
[...]
     15      -6.0962      2.00000
     16      -6.0962      2.00000
     17      -6.0948      2.00000
     18      -6.0948      2.00000
     19      -6.0948      2.00000
     20      -6.0948      2.00000
     21      -5.8436      2.00000
     22      -5.8436      2.00000
     23      -5.8436      2.00000
     24      -5.8436      2.00000
     25      -1.6859      2.00000
     26      -1.6859      2.00000
     27      -1.6859      2.00000
     28      -1.6859      2.00000
     29      -0.1296      2.00000
     30      -0.1296      2.00000
     31      -0.1296      2.00000
     32      -0.1296      2.00000
     33       1.0694      2.00000
     34       1.0694      2.00000
     35       1.0694      2.00000
     36       1.0694      2.00000
     37       4.7789      0.00000
     38       4.7789      0.00000
     39       4.7789      0.00000
     40       4.7789      0.00000
     41       6.9720      0.00000
     42       6.9720      0.00000
     43       6.9720      0.00000
     44       6.9720      0.00000
     45       7.3348      0.00000
     46       7.3348      0.00000
     47       7.3348      0.00000
     48       7.3348      0.00000

 k-point     7 :       0.2500    0.2500    0.2500
  band No.  band energies     occupation 
      1      -8.8727      2.00000
      2      -8.6545      2.00000
      3      -8.6545      2.00000
      4      -8.6545      2.00000
      5      -6.2760      2.00000
      6      -6.2760      2.00000
      7      -6.2248      2.00000
      8      -6.2248      2.00000
      9      -6.2248      2.00000
     10      -6.2109      2.00000
     11      -6.2109      2.00000
     12      -6.2109      2.00000
     13      -6.1261      2.00000
     14      -6.1216      2.00000
     15      -6.1216      2.00000
     16      -6.1216      2.00000
     17      -6.0905      2.00000
     18      -6.0905      2.00000
     19      -6.0769      2.00000
     20      -6.0769      2.00000
     21      -6.0769      2.00000
     22      -5.7379      2.00000
     23      -5.7379      2.00000
     24      -5.7379      2.00000
     25      -2.0064      2.00000
     26      -2.0064      2.00000
     27      -2.0064      2.00000
     28      -0.7808      2.00000
     29      -0.0754      2.00000
     30      -0.0754      2.00000
     31      -0.0754      2.00000
     32       0.5624      2.00000
     33       0.5624      2.00000
     34       0.5624      2.00000
     35       1.4041      2.00000
     36       1.4041      2.00000
     37       3.6536      0.00000
     38       4.7108      0.00000
     39       4.7108      0.00000
     40       4.7108      0.00000
     41       6.2135      0.00000
     42       6.2135      0.00000
     43       6.2135      0.00000
     44       6.9291      0.00000
     45       6.9291      0.00000
     46       7.0265      0.00000
     47       7.9074      0.00000
     48       7.9074      0.00000

 k-point     8 :       0.5000    0.2500    0.2500
  band No.  band energies     occupation 
      1      -8.7612      2.00000
      2      -8.7612      2.00000
      3      -8.6543      2.00000
      4      -8.6543      2.00000
      5      -6.2560      2.00000
      6      -6.2560      2.00000
      7      -6.2474      2.00000
      8      -6.2474      2.00000
      9      -6.2320      2.00000
     10      -6.2320      2.00000
     11      -6.2223      2.00000
     12      -6.2223      2.00000
     13      -6.1071      2.00000
     14      -6.1071      2.00000
     15      -6.1021      2.00000
     16      -6.1021      2.00000
     17      -6.0853      2.00000
     18      -6.0853      2.00000
     19      -6.0805      2.00000
     20      -6.0805      2.00000
     21      -5.9495      2.00000
     22      -5.9495      2.00000
     23      -5.7074      2.00000
     24      -5.7074      2.00000
     25      -2.1332      2.00000
     26      -2.1332      2.00000
     27      -1.5513      2.00000
     28      -1.5513      2.00000
     29      -0.0714      2.00000
     30      -0.0714      2.00000
     31       0.6631      2.00000
     32       0.6631      2.00000
     33       0.8337      2.00000
     34       0.8337      2.00000
     35       0.9544      2.00000
     36       0.9544      2.00000
     37       4.2328      0.00000
     38       4.2328      0.00000
     39       4.8669      0.00000
     40       4.8669      0.00000
     41       6.4163      0.00000
     42       6.4163      0.00000
     43       6.4401      0.00000
     44       6.4401      0.00000
     45       7.5287      0.00000
     46       7.5287      0.00000
     47       7.6301      0.00000
     48       7.6301      0.00000

 k-point     9 :       0.5000    0.5000    0.2500
  band No.  band energies     occupation 
      1      -8.7064      2.00000
      2      -8.7064      2.00000
      3      -8.7064      2.00000
      4      -8.7064      2.00000
      5      -6.2468      2.00000
      6      -6.2468      2.00000
      7      -6.2468      2.00000
      8      -6.2468      2.00000
      9      -6.2460      2.00000
     10      -6.2460      2.00000
     11      -6.2460      2.00000
     12      -6.2460      2.00000
     13      -6.0893      2.00000
     14      -6.0893      2.00000
     15      -6.0893      2.00000
     16      -6.0893      2.00000
     17      -6.0881      2.00000
     18      -6.0881      2.00000
     19      -6.0881      2.00000
     20      -6.0881      2.00000
     21      -5.8162      2.00000
     22      -5.8162      2.00000
     23      -5.8162      2.00000
     24      -5.8162      2.00000
     25      -2.0392      2.00000
     26      -2.0392      2.00000
     27      -2.0392      2.00000
     28      -2.0392      2.00000
     29       0.4788      2.00000
     30       0.4788      2.00000
     31       0.4788      2.00000
     32       0.4788      2.00000
     33       1.0827      2.00000
     34       1.0827      2.00000
     35       1.0827      2.00000
     36       1.0827      2.00000
     37       4.1796      0.00000
     38       4.1796      0.00000
     39       4.1796      0.00000
     40       4.1796      0.00000
     41       6.7754      0.00000
     42       6.7754      0.00000
     43       6.7754      0.00000
     44       6.7754      0.00000
     45       7.2363      0.00000
     46       7.2363      0.00000
     47       7.2363      0.00000
     48       7.2363      0.00000

 k-point    10 :       0.5000    0.5000    0.5000
  band No.  band energies     occupation 
      1      -8.7053      2.00000
      2      -8.7053      2.00000
      3      -8.7053      2.00000
      4      -8.7053      2.00000
      5      -6.2531      2.00000
      6      -6.2531      2.00000
      7      -6.2531      2.00000
      8      -6.2531      2.00000
      9      -6.2531      2.00000
     10      -6.2531      2.00000
     11      -6.2531      2.00000
     12      -6.2531      2.00000
     13      -6.0828      2.00000
     14      -6.0828      2.00000
     15      -6.0828      2.00000
     16      -6.0828      2.00000
     17      -6.0828      2.00000
     18      -6.0828      2.00000
     19      -6.0828      2.00000
     20      -6.0828      2.00000
     21      -5.7876      2.00000
     22      -5.7876      2.00000
     23      -5.7876      2.00000
     24      -5.7876      2.00000
     25      -2.2893      2.00000
     26      -2.2893      2.00000
     27      -2.2893      2.00000
     28      -2.2893      2.00000
     29       1.0962      2.00000
     30       1.0962      2.00000
     31       1.0962      2.00000
     32       1.0962      2.00000
     33       1.0962      2.00000
     34       1.0962      2.00000
     35       1.0962      2.00000
     36       1.0962      2.00000
     37       3.5308      0.00000
     38       3.5308      0.00000
     39       3.5308      0.00000
     40       3.5308      0.00000
     41       6.9864      0.00000
     42       6.9864      0.00000
     43       6.9864      0.00000
     44       6.9864      0.00000
     45       6.9864      0.00000
     46       6.9864      0.00000
     47       6.9864      0.00000
     48       6.9864      0.00000


--------------------------------------------------------------------------------------------------------


 soft charge-density along one line, spin component           1
         0         1         2         3         4         5         6         7         8         9
 total charge-density along one line
 
 pseudopotential strength for first ion, spin component:           1
-18.104  -0.000  -0.000   0.000  -0.000 -18.139  -0.000  -0.000
 -0.000 -18.104   0.000   0.000  -0.000  -0.000 -18.139   0.000
 -0.000   0.000 -18.106  -0.000   0.000  -0.000   0.000 -18.141
  0.000   0.000  -0.000 -18.104  -0.000   0.000   0.000  -0.000
 -0.000  -0.000   0.000  -0.000 -18.106  -0.000  -0.000   0.000
-18.139  -0.000  -0.000   0.000  -0.000 -18.154  -0.000  -0.000
 -0.000 -18.139   0.000   0.000  -0.000  -0.000 -18.154   0.000
 -0.000   0.000 -18.141  -0.000   0.000  -0.000   0.000 -18.155
  0.000   0.000  -0.000 -18.139  -0.000   0.000   0.000  -0.000
 -0.000  -0.000   0.000  -0.000 -18.141  -0.000  -0.000   0.000
 -0.000  -0.000  -0.000   0.000   0.000  -0.000  -0.000  -0.000
 -0.000  -0.000  -0.000   0.000   0.000  -0.000  -0.000  -0.000
 -0.000   0.000  -0.000  -0.003  -0.000  -0.000   0.000  -0.000
 -0.003   0.000   0.000  -0.000   0.000  -0.003   0.000   0.000
  0.000  -0.003   0.000   0.000  -0.000   0.000  -0.003   0.000
 -0.000   0.000  -0.000  -0.003  -0.000  -0.000   0.000  -0.000
 -0.003   0.000   0.000  -0.000   0.000  -0.003   0.000   0.000
  0.000  -0.003   0.000   0.000  -0.000   0.000  -0.003   0.000
 total augmentation occupancy for first ion, spin component:           1
  3.938  -0.000   0.000  -0.000   0.000  -1.813  -0.000  -0.000  -0.000  -0.000  -0.000   0.000   0.000  -0.468  -0.000   0.000
 -0.000   3.938  -0.000  -0.000  -0.000  -0.000  -1.813   0.000  -0.000   0.000  -0.000   0.000  -0.000  -0.000  -0.468  -0.000
  0.000  -0.000   2.580  -0.000   0.000  -0.000   0.000  -0.512   0.000   0.000  -0.000  -0.000   0.000  -0.000   0.000  -0.000
 -0.000  -0.000  -0.000   3.938  -0.000  -0.000   0.000   0.000  -1.813   0.000  -0.000   0.000  -0.468  -0.000   0.000   0.066
  0.000  -0.000  -0.000  -0.000   2.580  -0.000   0.000   0.000   0.000  -0.512  -0.000   0.000  -0.000  -0.000   0.000   0.000
 -1.813  -0.000  -0.000  -0.000  -0.000   1.686   0.000   0.000   0.000   0.000   0.000   0.000   0.000   0.447   0.000  -0.000
 -0.000  -1.813   0.000   0.000   0.000  -0.000   1.686  -0.000  -0.000  -0.000   0.000  -0.000  -0.000  -0.000   0.447   0.000
  0.000   0.000  -0.512   0.000   0.000  -0.000  -0.000   0.439  -0.000   0.000   0.000  -0.000  -0.000   0.000  -0.000   0.000
  0.000  -0.000   0.000  -1.813   0.000  -0.000   0.000  -0.000   1.686  -0.000   0.000   0.000   0.447  -0.000   0.000  -0.077
 -0.000   0.000   0.000   0.000  -0.512   0.000  -0.000   0.000  -0.000   0.439   0.000  -0.000   0.000   0.000  -0.000   0.000
  0.000  -0.000   0.000  -0.000  -0.000   0.000   0.000   0.000   0.000  -0.000   2.763  -0.683   0.000  -0.000   0.000  -0.000
  0.000   0.000  -0.000  -0.000   0.000   0.000   0.000  -0.000  -0.000   0.000  -0.683   0.202   0.000  -0.000   0.000  -0.000
 -0.000  -0.000   0.000  -0.468   0.000   0.000  -0.000  -0.000   0.447   0.000  -0.000   0.000   0.186   0.000  -0.000  -0.032
 -0.468  -0.000   0.000  -0.000  -0.000   0.447  -0.000   0.000  -0.000   0.000  -0.000   0.000   0.000   0.186   0.000  -0.000
 -0.000  -0.468   0.000   0.000  -0.000  -0.000   0.447  -0.000  -0.000  -0.000   0.000  -0.000  -0.000  -0.000   0.186   0.000
  0.000  -0.000  -0.000   0.066  -0.000  -0.000   0.000   0.000  -0.077  -0.000  -0.000  -0.000  -0.032  -0.000   0.000   0.007
  0.066  -0.000  -0.000  -0.000   0.000  -0.077   0.000  -0.000   0.000  -0.000   0.000  -0.000  -0.000  -0.032   0.000   0.000
  0.000   0.066  -0.000   0.000  -0.000  -0.000  -0.077   0.000  -0.000   0.000   0.000   0.000   0.000   0.000  -0.032  -0.000


------------------------ aborting loop because EDIFF is reached ----------------------------------------


 


 total charge     
 
# of ion     s       p       d       tot
----------------------------------------
  1        0.462   0.282   9.533  10.277
  2        0.462   0.282   9.533  10.277
  3        0.462   0.282   9.533  10.277
  4        0.462   0.282   9.533  10.277
  5        1.353   2.031   0.017   3.402
  6        1.353   2.031   0.017   3.402
  7        1.353   2.031   0.017   3.402
  8        1.353   2.031   0.017   3.402
------------------------------------------------
tot        7.260   9.252  38.201  54.713
 
    CHARGE:  cpu time    0.06: real time    0.10
    FORLOC:  cpu time    0.00: real time    0.00
    FORNL :  cpu time    0.33: real time    0.68
    STRESS:  cpu time    0.83: real time    1.81
    FORCOR:  cpu time    0.03: real time    0.06
    FORHAR:  cpu time    0.01: real time    0.02
    MIXING:  cpu time    0.00: real time    0.00
    OFIELD:  cpu time    0.00: real time    0.00

  FORCE on cell =-STRESS in cart. coord.  units (eV):
  Direction    XX          YY          ZZ          XY          YZ          ZX
  --------------------------------------------------------------------------------------
  Alpha Z   188.19373   188.19373   188.19373
  Ewald   -1363.57664 -1363.57664 -1363.57664     0.00000     0.00000     0.00000
  Hartree   688.03698   688.03698   688.03698    -0.00000    -0.00000    -0.00000
  E(xc)    -348.65137  -348.65137  -348.65137    -0.00000     0.00000    -0.00000
  Local    -101.62175  -101.62175  -101.62175     0.00000     0.00000    -0.00000
  n-local   101.71471   106.04453   102.79648    -2.22052    -1.90665    -0.78852
  augment    25.15354    25.15354    25.15354     0.00000    -0.00000    -0.00000
  Kinetic   805.42597   811.30882   810.15381    -2.03435    -2.11941    -0.83714
  Fock        0.00000     0.00000     0.00000     0.00000     0.00000     0.00000
  -------------------------------------------------------------------------------------
  Total       0.01594     0.01594     0.01594     0.00000    -0.00000     0.00000
  in kB       0.08788     0.08788     0.08788     0.00000    -0.00000     0.00000
  external pressure =        0.09 kB  Pullay stress =        0.00 kB


 VOLUME and BASIS-vectors are now :
 -----------------------------------------------------------------------------
  energy-cutoff  :      500.00
  volume of cell :      290.53
      direct lattice vectors                 reciprocal lattice vectors
     6.623110135 -0.000000000 -0.000000000     0.150986467 -0.000000000  0.000000000
     0.000000000  6.623110135 -0.000000000     0.000000000  0.150986467 -0.000000000
     0.000000000  0.000000000  6.623110135     0.000000000  0.000000000  0.150986467

  length of vectors
     6.623110135  6.623110135  6.623110135     0.150986467  0.150986467  0.150986467


 FORCES acting on ions
    electron-ion (+dipol)            ewald-force                    non-local-force                 convergence-correction
 -----------------------------------------------------------------------------------------------
   0.135E-12 0.391E-13 -.138E-12   0.142E-13 0.711E-14 0.711E-14   0.607E-17 -.867E-17 0.781E-17   0.966E-13 0.698E-13 -.105E-12
   0.163E-12 0.689E-12 0.507E-12   0.142E-13 0.711E-14 -.711E-14   0.607E-17 -.119E-17 0.867E-18   0.884E-13 0.431E-13 -.768E-13
   0.779E-12 0.327E-13 0.643E-11   0.284E-13 0.711E-14 -.711E-14   0.113E-16 -.760E-18 0.867E-18   0.920E-13 0.766E-13 -.841E-13
   0.765E-12 0.360E-11 0.200E-11   0.284E-13 0.711E-14 0.711E-14   0.867E-18 0.432E-18 0.867E-18   0.797E-13 0.508E-13 -.963E-13
   0.772E-13 0.255E-12 -.715E-13   -.301E-13 -.726E-14 -.845E-15   0.121E-16 -.147E-16 -.425E-16   -.469E-15 0.425E-13 -.249E-13
   0.794E-13 0.184E-12 -.165E-12   -.219E-13 -.568E-14 -.834E-15   -.156E-16 0.139E-16 -.234E-16   -.214E-13 0.687E-13 -.254E-13
   0.408E-13 0.572E-12 -.675E-12   -.197E-13 -.862E-14 0.105E-14   -.347E-17 -.130E-16 -.199E-16   -.216E-13 0.403E-13 0.302E-14
   0.794E-13 0.179E-13 -.140E-12   -.277E-13 -.704E-14 0.106E-14   -.520E-17 0.442E-16 -.607E-17   -.148E-14 0.700E-13 0.726E-14
 -----------------------------------------------------------------------------------------------
   0.212E-11 0.539E-11 0.775E-11   -.141E-13 -.180E-15 0.423E-15   0.121E-16 0.202E-16 -.815E-16   0.312E-12 0.462E-12 -.402E-12
 
 
 POSITION                                       TOTAL-FORCE (eV/Angst)
 -----------------------------------------------------------------------------------
     -0.00000      0.00000     -0.00000        -0.000000      0.000000     -0.000000
      0.00000      3.31156      3.31156        -0.000000     -0.000000      0.000000
      3.31156      0.00000      3.31156        -0.000000      0.000000     -0.000000
      3.31156      3.31156     -0.00000        -0.000000     -0.000000     -0.000000
      1.65578      1.65578      1.65578         0.000000      0.000000      0.000000
      4.96733      4.96733      1.65578         0.000000     -0.000000      0.000000
      4.96733      1.65578      4.96733         0.000000     -0.000000      0.000000
      1.65578      4.96733      4.96733         0.000000     -0.000000      0.000000
 -----------------------------------------------------------------------------------
    total drift:                                0.000000      0.000000      0.000000


--------------------------------------------------------------------------------------------------------



  FREE ENERGIE OF THE ION-ELECTRON SYSTEM (eV)
  ---------------------------------------------------
  free  energy   TOTEN  =       -19.24218624 eV

  energy  without entropy=      -19.24218624  energy(sigma->0) =      -19.24218624
 
 d Force = 0.0000000E+00[ 0.000E+00, 0.000E+00]  d Energy = 0.9537676E-02-0.954E-02
 d Force = 0.0000000E+00[ 0.000E+00, 0.000E+00]  d Ewald  = 0.2389233E+02-0.239E+02


--------------------------------------------------------------------------------------------------------


    POTLOK:  cpu time    0.03: real time    0.06


--------------------------------------------------------------------------------------------------------




--------------------------------------------------------------------------------------------------------


  
 reached required accuracy - stopping structural energy minimisation
 writing wavefunctions
     LOOP+:  cpu time   11.67: real time   24.62
    4ORBIT:  cpu time    0.00: real time    0.00
 


 total charge     
 
# of ion     s       p       d       tot
----------------------------------------
  1        0.462   0.282   9.533  10.277
  2        0.462   0.282   9.533  10.277
  3        0.462   0.282   9.533  10.277
  4        0.462   0.282   9.533  10.277
  5        1.353   2.031   0.017   3.402
  6        1.353   2.031   0.017   3.402
  7        1.353   2.031   0.017   3.402
  8        1.353   2.031   0.017   3.402
------------------------------------------------
tot        7.260   9.252  38.201  54.713
 

 total amount of memory used by VASP on root node    64133. kBytes
========================================================================

   base      :      30000. kBytes
   nonl-proj :      20863. kBytes
   fftplans  :       1814. kBytes
   grid      :       4551. kBytes
   one-center:        124. kBytes
   wavefun   :       6781. kBytes
 
  
  
 General timing and accounting informations for this job:
 ========================================================
  
                  Total CPU time used (sec):       45.497
                            User time (sec):       42.731
                          System time (sec):        2.766
                         Elapsed time (sec):       96.570
  
                   Maximum memory used (kb):    62205952.
                   Average memory used (kb):           0.
  
                          Minor page faults:        15763
                          Major page faults:          271
                 Voluntary context switches:           21
