PROCAR new format
# of k-points:   10         # of bands:  48         # of ions:   8

 k-point    1 :    0.00000000 0.00000000 0.00000000     weight = 0.01562500

band   1 # energy   -9.04309936 # occ.  2.00000000
 
ion      s      p      d    tot
  1  0.013  0.000  0.000  0.013
  2  0.013  0.000  0.000  0.013
  3  0.013  0.000  0.000  0.013
  4  0.013  0.000  0.000  0.013
  5  0.145  0.000  0.000  0.145
  6  0.145  0.000  0.000  0.145
  7  0.145  0.000  0.000  0.145
  8  0.145  0.000  0.000  0.145
tot  0.633  0.000  0.000  0.633
 
band   2 # energy   -8.60239888 # occ.  2.00000000
 
ion      s      p      d    tot
  1  0.000  0.003  0.033  0.035
  2  0.000  0.003  0.033  0.035
  3  0.000  0.003  0.033  0.035
  4  0.000  0.003  0.033  0.035
  5  0.062  0.000  0.000  0.062
  6  0.000  0.000  0.000  0.000
  7  0.362  0.000  0.000  0.362
  8  0.156  0.000  0.000  0.156
tot  0.580  0.011  0.130  0.722
 
band   3 # energy   -8.60239888 # occ.  2.00000000
 
ion      s      p      d    tot
  1  0.000  0.003  0.033  0.035
  2  0.000  0.003  0.033  0.035
  3  0.000  0.003  0.033  0.035
  4  0.000  0.003  0.033  0.035
  5  0.207  0.000  0.000  0.207
  6  0.107  0.000  0.000  0.107
  7  0.062  0.000  0.000  0.062
  8  0.204  0.000  0.000  0.204
tot  0.580  0.011  0.130  0.722
 
band   4 # energy   -8.60239888 # occ.  2.00000000
 
ion      s      p      d    tot
  1  0.000  0.003  0.033  0.035
  2  0.000  0.003  0.033  0.035
  3  0.000  0.003  0.033  0.035
  4  0.000  0.003  0.033  0.035
  5  0.166  0.000  0.000  0.166
  6  0.328  0.000  0.000  0.328
  7  0.011  0.000  0.000  0.011
  8  0.075  0.000  0.000  0.075
tot  0.580  0.011  0.130  0.722
 
band   5 # energy   -6.30538669 # occ.  2.00000000
 
ion      s      p      d    tot
  1  0.000  0.000  0.228  0.228
  2  0.000  0.000  0.228  0.228
  3  0.000  0.000  0.228  0.228
  4  0.000  0.000  0.228  0.228
  5  0.000  0.004  0.000  0.004
  6  0.000  0.004  0.000  0.004
  7  0.000  0.004  0.000  0.004
  8  0.000  0.004  0.000  0.004
tot  0.000  0.017  0.911  0.928
 
band   6 # energy   -6.30538669 # occ.  2.00000000
 
ion      s      p      d    tot
  1  0.000  0.000  0.228  0.228
  2  0.000  0.000  0.228  0.228
  3  0.000  0.000  0.228  0.228
  4  0.000  0.000  0.228  0.228
  5  0.000  0.004  0.000  0.004
  6  0.000  0.004  0.000  0.004
  7  0.000  0.004  0.000  0.004
  8  0.000  0.004  0.000  0.004
tot  0.000  0.017  0.911  0.928
 
band   7 # energy   -6.30538669 # occ.  2.00000000
 
ion      s      p      d    tot
  1  0.000  0.000  0.228  0.228
  2  0.000  0.000  0.228  0.228
  3  0.000  0.000  0.228  0.228
  4  0.000  0.000  0.228  0.228
  5  0.000  0.004  0.000  0.004
  6  0.000  0.004  0.000  0.004
  7  0.000  0.004  0.000  0.004
  8  0.000  0.004  0.000  0.004
tot  0.000  0.017  0.911  0.928
 
band   8 # energy   -6.17206172 # occ.  2.00000000
 
ion      s      p      d    tot
  1  0.000  0.000  0.257  0.257
  2  0.000  0.000  0.163  0.163
  3  0.000  0.000  0.148  0.148
  4  0.000  0.000  0.369  0.369
  5  0.000  0.002  0.000  0.002
  6  0.000  0.002  0.000  0.003
  7  0.000  0.002  0.000  0.002
  8  0.000  0.001  0.000  0.001
tot  0.000  0.008  0.939  0.946
 
band   9 # energy   -6.17206172 # occ.  2.00000000
 
ion      s      p      d    tot
  1  0.000  0.000  0.269  0.270
  2  0.000  0.000  0.173  0.173
  3  0.000  0.000  0.267  0.268
  4  0.000  0.000  0.228  0.228
  5  0.000  0.003  0.000  0.003
  6  0.000  0.002  0.000  0.002
  7  0.000  0.001  0.000  0.001
  8  0.000  0.002  0.000  0.002
tot  0.000  0.008  0.939  0.946
 
band  10 # energy   -6.17206172 # occ.  2.00000000
 
ion      s      p      d    tot
  1  0.000  0.000  0.235  0.235
  2  0.000  0.000  0.205  0.206
  3  0.000  0.000  0.266  0.266
  4  0.000  0.000  0.231  0.231
  5  0.000  0.003  0.000  0.003
  6  0.000  0.001  0.000  0.001
  7  0.000  0.001  0.000  0.002
  8  0.000  0.002  0.000  0.002
tot  0.000  0.008  0.939  0.946
 
band  11 # energy   -6.17206172 # occ.  2.00000000
 
ion      s      p      d    tot
  1  0.000  0.000  0.184  0.185
  2  0.000  0.000  0.262  0.262
  3  0.000  0.000  0.202  0.202
  4  0.000  0.000  0.289  0.289
  5  0.000  0.001  0.000  0.001
  6  0.000  0.002  0.000  0.003
  7  0.000  0.001  0.000  0.001
  8  0.000  0.003  0.000  0.003
tot  0.000  0.008  0.939  0.946
 
band  12 # energy   -6.17206172 # occ.  2.00000000
 
ion      s      p      d    tot
  1  0.000  0.000  0.252  0.252
  2  0.000  0.000  0.287  0.287
  3  0.000  0.000  0.302  0.302
  4  0.000  0.000  0.097  0.097
  5  0.000  0.001  0.000  0.001
  6  0.000  0.002  0.000  0.002
  7  0.000  0.002  0.000  0.002
  8  0.000  0.002  0.000  0.003
tot  0.000  0.008  0.939  0.946
 
band  13 # energy   -6.17206172 # occ.  2.00000000
 
ion      s      p      d    tot
  1  0.000  0.000  0.209  0.209
  2  0.000  0.000  0.316  0.316
  3  0.000  0.000  0.220  0.220
  4  0.000  0.000  0.193  0.193
  5  0.000  0.001  0.000  0.002
  6  0.000  0.001  0.000  0.001
  7  0.000  0.003  0.000  0.003
  8  0.000  0.001  0.000  0.002
tot  0.000  0.008  0.939  0.946
 
band  14 # energy   -6.16953766 # occ.  2.00000000
 
ion      s      p      d    tot
  1  0.000  0.000  0.131  0.132
  2  0.000  0.000  0.147  0.147
  3  0.000  0.000  0.304  0.304
  4  0.000  0.000  0.340  0.340
  5  0.000  0.001  0.000  0.002
  6  0.000  0.001  0.000  0.002
  7  0.000  0.001  0.000  0.002
  8  0.000  0.001  0.000  0.002
tot  0.001  0.006  0.923  0.930
 
band  15 # energy   -6.16953766 # occ.  2.00000000
 
ion      s      p      d    tot
  1  0.000  0.000  0.302  0.302
  2  0.000  0.000  0.329  0.329
  3  0.000  0.000  0.275  0.276
  4  0.001  0.000  0.016  0.016
  5  0.000  0.001  0.000  0.002
  6  0.000  0.001  0.000  0.002
  7  0.000  0.001  0.000  0.002
  8  0.000  0.001  0.000  0.002
tot  0.001  0.006  0.923  0.930
 
band  16 # energy   -6.16953766 # occ.  2.00000000
 
ion      s      p      d    tot
  1  0.000  0.000  0.258  0.258
  2  0.000  0.000  0.216  0.216
  3  0.000  0.000  0.113  0.113
  4  0.000  0.000  0.336  0.336
  5  0.000  0.001  0.000  0.002
  6  0.000  0.001  0.000  0.002
  7  0.000  0.001  0.000  0.002
  8  0.000  0.001  0.000  0.002
tot  0.001  0.006  0.923  0.930
 
band  17 # energy   -6.09039075 # occ.  2.00000000
 
ion      s      p      d    tot
  1  0.000  0.000  0.237  0.237
  2  0.000  0.000  0.237  0.237
  3  0.000  0.000  0.237  0.237
  4  0.000  0.000  0.237  0.237
  5  0.000  0.000  0.000  0.000
  6  0.000  0.000  0.000  0.000
  7  0.000  0.000  0.000  0.000
  8  0.000  0.000  0.000  0.000
tot  0.000  0.000  0.948  0.948
 
band  18 # energy   -6.09039075 # occ.  2.00000000
 
ion      s      p      d    tot
  1  0.000  0.000  0.237  0.237
  2  0.000  0.000  0.237  0.237
  3  0.000  0.000  0.237  0.237
  4  0.000  0.000  0.237  0.237
  5  0.000  0.000  0.000  0.000
  6  0.000  0.000  0.000  0.000
  7  0.000  0.000  0.000  0.000
  8  0.000  0.000  0.000  0.000
tot  0.000  0.000  0.948  0.948
 
band  19 # energy   -6.06489506 # occ.  2.00000000
 
ion      s      p      d    tot
  1  0.000  0.000  0.155  0.155
  2  0.000  0.000  0.191  0.191
  3  0.000  0.000  0.298  0.298
  4  0.000  0.000  0.306  0.306
  5  0.000  0.000  0.000  0.000
  6  0.000  0.000  0.000  0.000
  7  0.000  0.000  0.000  0.000
  8  0.000  0.000  0.000  0.000
tot  0.000  0.000  0.951  0.951
 
band  20 # energy   -6.06489506 # occ.  2.00000000
 
ion      s      p      d    tot
  1  0.000  0.000  0.346  0.346
  2  0.000  0.000  0.263  0.263
  3  0.000  0.000  0.264  0.264
  4  0.000  0.000  0.078  0.078
  5  0.000  0.000  0.000  0.000
  6  0.000  0.000  0.000  0.000
  7  0.000  0.000  0.000  0.000
  8  0.000  0.000  0.000  0.000
tot  0.000  0.000  0.951  0.951
 
band  21 # energy   -6.06489506 # occ.  2.00000000
 
ion      s      p      d    tot
  1  0.000  0.000  0.212  0.212
  2  0.000  0.000  0.260  0.260
  3  0.000  0.000  0.151  0.151
  4  0.000  0.000  0.329  0.329
  5  0.000  0.000  0.000  0.000
  6  0.000  0.000  0.000  0.000
  7  0.000  0.000  0.000  0.000
  8  0.000  0.000  0.000  0.000
tot  0.000  0.000  0.951  0.951
 
band  22 # energy   -5.66922067 # occ.  2.00000000
 
ion      s      p      d    tot
  1  0.000  0.001  0.204  0.205
  2  0.000  0.001  0.204  0.205
  3  0.000  0.001  0.204  0.205
  4  0.000  0.001  0.204  0.205
  5  0.031  0.000  0.000  0.031
  6  0.018  0.000  0.000  0.019
  7  0.029  0.000  0.000  0.029
  8  0.022  0.000  0.000  0.022
tot  0.101  0.004  0.818  0.923
 
band  23 # energy   -5.66922067 # occ.  2.00000000
 
ion      s      p      d    tot
  1  0.000  0.001  0.204  0.205
  2  0.000  0.001  0.204  0.205
  3  0.000  0.001  0.204  0.205
  4  0.000  0.001  0.204  0.205
  5  0.010  0.000  0.000  0.010
  6  0.011  0.000  0.000  0.011
  7  0.040  0.000  0.000  0.040
  8  0.040  0.000  0.000  0.040
tot  0.101  0.004  0.818  0.923
 
band  24 # energy   -5.66922067 # occ.  2.00000000
 
ion      s      p      d    tot
  1  0.000  0.001  0.204  0.205
  2  0.000  0.001  0.204  0.205
  3  0.000  0.001  0.204  0.205
  4  0.000  0.001  0.204  0.205
  5  0.034  0.000  0.000  0.034
  6  0.046  0.000  0.000  0.046
  7  0.006  0.000  0.000  0.006
  8  0.014  0.000  0.000  0.014
tot  0.101  0.004  0.818  0.923
 
band  25 # energy   -2.22342365 # occ.  2.00000000
 
ion      s      p      d    tot
  1  0.079  0.000  0.005  0.084
  2  0.028  0.000  0.007  0.035
  3  0.122  0.000  0.003  0.124
  4  0.011  0.000  0.008  0.019
  5  0.000  0.053  0.001  0.054
  6  0.000  0.053  0.001  0.054
  7  0.000  0.053  0.001  0.054
  8  0.000  0.053  0.001  0.054
tot  0.240  0.212  0.025  0.477
 
band  26 # energy   -2.22342365 # occ.  2.00000000
 
ion      s      p      d    tot
  1  0.011  0.000  0.008  0.019
  2  0.132  0.000  0.002  0.134
  3  0.027  0.000  0.007  0.034
  4  0.070  0.000  0.005  0.075
  5  0.000  0.053  0.001  0.054
  6  0.000  0.053  0.001  0.054
  7  0.000  0.053  0.001  0.054
  8  0.000  0.053  0.001  0.054
tot  0.240  0.212  0.025  0.477
 
band  27 # energy   -2.22342365 # occ.  2.00000000
 
ion      s      p      d    tot
  1  0.090  0.000  0.004  0.094
  2  0.020  0.000  0.007  0.027
  3  0.031  0.000  0.007  0.038
  4  0.099  0.000  0.004  0.103
  5  0.000  0.053  0.001  0.054
  6  0.000  0.053  0.001  0.054
  7  0.000  0.053  0.001  0.054
  8  0.000  0.053  0.001  0.054
tot  0.240  0.212  0.025  0.477
 
band  28 # energy    0.12682737 # occ.  2.00000000
 
ion      s      p      d    tot
  1  0.000  0.021  0.004  0.025
  2  0.000  0.007  0.001  0.008
  3  0.000  0.015  0.003  0.018
  4  0.000  0.030  0.006  0.036
  5  0.000  0.102  0.000  0.102
  6  0.000  0.081  0.000  0.081
  7  0.000  0.127  0.000  0.127
  8  0.000  0.064  0.000  0.064
tot  0.000  0.446  0.016  0.462
 
band  29 # energy    0.12682737 # occ.  2.00000000
 
ion      s      p      d    tot
  1  0.000  0.018  0.004  0.021
  2  0.000  0.003  0.001  0.004
  3  0.000  0.023  0.005  0.028
  4  0.000  0.029  0.006  0.035
  5  0.000  0.091  0.000  0.091
  6  0.000  0.053  0.000  0.053
  7  0.000  0.119  0.000  0.119
  8  0.000  0.111  0.000  0.111
tot  0.000  0.446  0.016  0.462
 
band  30 # energy    0.12682737 # occ.  2.00000000
 
ion      s      p      d    tot
  1  0.000  0.017  0.004  0.020
  2  0.000  0.027  0.006  0.032
  3  0.000  0.023  0.005  0.028
  4  0.000  0.006  0.001  0.008
  5  0.000  0.084  0.000  0.084
  6  0.000  0.140  0.000  0.140
  7  0.000  0.078  0.000  0.078
  8  0.000  0.072  0.000  0.072
tot  0.000  0.446  0.016  0.462
 
band  31 # energy    0.12682737 # occ.  2.00000000
 
ion      s      p      d    tot
  1  0.000  0.030  0.006  0.036
  2  0.000  0.015  0.003  0.018
  3  0.000  0.021  0.004  0.025
  4  0.000  0.007  0.001  0.008
  5  0.000  0.103  0.000  0.103
  6  0.000  0.041  0.000  0.041
  7  0.000  0.095  0.000  0.095
  8  0.000  0.135  0.000  0.135
tot  0.000  0.446  0.016  0.462
 
band  32 # energy    0.12682737 # occ.  2.00000000
 
ion      s      p      d    tot
  1  0.000  0.013  0.003  0.015
  2  0.000  0.022  0.005  0.027
  3  0.000  0.020  0.004  0.025
  4  0.000  0.017  0.004  0.021
  5  0.000  0.115  0.000  0.115
  6  0.000  0.150  0.000  0.150
  7  0.000  0.019  0.000  0.019
  8  0.000  0.089  0.000  0.090
tot  0.000  0.446  0.016  0.462
 
band  33 # energy    0.12682737 # occ.  2.00000000
 
ion      s      p      d    tot
  1  0.000  0.011  0.002  0.013
  2  0.000  0.035  0.007  0.042
  3  0.000  0.007  0.001  0.008
  4  0.000  0.020  0.004  0.024
  5  0.000  0.065  0.000  0.065
  6  0.000  0.096  0.000  0.096
  7  0.000  0.123  0.000  0.124
  8  0.000  0.089  0.000  0.089
tot  0.000  0.446  0.016  0.462
 
band  34 # energy    1.77964957 # occ.  2.00000000
 
ion      s      p      d    tot
  1  0.000  0.006  0.017  0.023
  2  0.000  0.006  0.017  0.023
  3  0.000  0.006  0.017  0.023
  4  0.000  0.006  0.017  0.023
  5  0.000  0.122  0.000  0.122
  6  0.000  0.122  0.000  0.122
  7  0.000  0.122  0.000  0.122
  8  0.000  0.122  0.000  0.122
tot  0.000  0.513  0.068  0.581
 
band  35 # energy    1.77964957 # occ.  2.00000000
 
ion      s      p      d    tot
  1  0.000  0.006  0.017  0.023
  2  0.000  0.006  0.017  0.023
  3  0.000  0.006  0.017  0.023
  4  0.000  0.006  0.017  0.023
  5  0.000  0.122  0.000  0.122
  6  0.000  0.122  0.000  0.122
  7  0.000  0.122  0.000  0.122
  8  0.000  0.122  0.000  0.122
tot  0.000  0.513  0.068  0.581
 
band  36 # energy    1.77964957 # occ.  2.00000000
 
ion      s      p      d    tot
  1  0.000  0.006  0.017  0.023
  2  0.000  0.006  0.017  0.023
  3  0.000  0.006  0.017  0.023
  4  0.000  0.006  0.017  0.023
  5  0.000  0.122  0.000  0.122
  6  0.000  0.122  0.000  0.122
  7  0.000  0.122  0.000  0.122
  8  0.000  0.122  0.000  0.122
tot  0.000  0.513  0.068  0.581
 
band  37 # energy    2.35511057 # occ.  0.00000000
 
ion      s      p      d    tot
  1  0.082  0.000  0.000  0.082
  2  0.082  0.000  0.000  0.082
  3  0.082  0.000  0.000  0.082
  4  0.082  0.000  0.000  0.082
  5  0.055  0.000  0.000  0.055
  6  0.055  0.000  0.000  0.055
  7  0.055  0.000  0.000  0.055
  8  0.055  0.000  0.000  0.055
tot  0.547  0.000  0.000  0.547
 
band  38 # energy    4.44770825 # occ.  0.00000000
 
ion      s      p      d    tot
  1  0.002  0.000  0.012  0.014
  2  0.102  0.000  0.004  0.107
  3  0.035  0.000  0.009  0.044
  4  0.076  0.000  0.006  0.083
  5  0.000  0.030  0.011  0.041
  6  0.000  0.030  0.011  0.041
  7  0.000  0.030  0.011  0.041
  8  0.000  0.030  0.011  0.041
tot  0.215  0.120  0.078  0.412
 
band  39 # energy    4.44770825 # occ.  0.00000000
 
ion      s      p      d    tot
  1  0.089  0.000  0.005  0.094
  2  0.034  0.000  0.010  0.043
  3  0.017  0.000  0.011  0.028
  4  0.075  0.000  0.006  0.082
  5  0.000  0.030  0.011  0.041
  6  0.000  0.030  0.011  0.041
  7  0.000  0.030  0.011  0.041
  8  0.000  0.030  0.011  0.041
tot  0.215  0.120  0.078  0.412
 
band  40 # energy    4.44770825 # occ.  0.00000000
 
ion      s      p      d    tot
  1  0.071  0.000  0.007  0.077
  2  0.025  0.000  0.010  0.035
  3  0.109  0.000  0.004  0.113
  4  0.010  0.000  0.011  0.021
  5  0.000  0.030  0.011  0.041
  6  0.000  0.030  0.011  0.041
  7  0.000  0.030  0.011  0.041
  8  0.000  0.030  0.011  0.041
tot  0.215  0.120  0.078  0.412
 
band  41 # energy    4.52436941 # occ.  0.00000000
 
ion      s      p      d    tot
  1  0.000  0.025  0.007  0.032
  2  0.000  0.025  0.007  0.032
  3  0.000  0.025  0.007  0.032
  4  0.000  0.025  0.007  0.032
  5  0.017  0.000  0.007  0.024
  6  0.004  0.000  0.012  0.015
  7  0.022  0.000  0.005  0.027
  8  0.004  0.000  0.012  0.015
tot  0.046  0.099  0.064  0.210
 
band  42 # energy    4.52436941 # occ.  0.00000000
 
ion      s      p      d    tot
  1  0.000  0.025  0.007  0.032
  2  0.000  0.025  0.007  0.032
  3  0.000  0.025  0.007  0.032
  4  0.000  0.025  0.007  0.032
  5  0.003  0.000  0.012  0.015
  6  0.029  0.000  0.002  0.031
  7  0.009  0.000  0.010  0.019
  8  0.006  0.000  0.011  0.017
tot  0.046  0.099  0.064  0.210
 
band  43 # energy    4.52436941 # occ.  0.00000000
 
ion      s      p      d    tot
  1  0.000  0.025  0.007  0.032
  2  0.000  0.025  0.007  0.032
  3  0.000  0.025  0.007  0.032
  4  0.000  0.025  0.007  0.032
  5  0.015  0.000  0.008  0.022
  6  0.002  0.000  0.013  0.014
  7  0.004  0.000  0.012  0.016
  8  0.026  0.000  0.003  0.029
tot  0.046  0.099  0.064  0.210
 
band  44 # energy    6.41870509 # occ.  0.00000000
 
ion      s      p      d    tot
  1  0.000  0.059  0.000  0.059
  2  0.000  0.059  0.000  0.059
  3  0.000  0.059  0.000  0.059
  4  0.000  0.059  0.000  0.059
  5  0.000  0.002  0.021  0.023
  6  0.000  0.002  0.021  0.023
  7  0.000  0.002  0.021  0.023
  8  0.000  0.002  0.021  0.023
tot  0.000  0.243  0.085  0.328
 
band  45 # energy    6.41870509 # occ.  0.00000000
 
ion      s      p      d    tot
  1  0.000  0.059  0.000  0.059
  2  0.000  0.059  0.000  0.059
  3  0.000  0.059  0.000  0.059
  4  0.000  0.059  0.000  0.059
  5  0.000  0.002  0.021  0.023
  6  0.000  0.002  0.021  0.023
  7  0.000  0.002  0.021  0.023
  8  0.000  0.002  0.021  0.023
tot  0.000  0.243  0.085  0.328
 
band  46 # energy    6.41870509 # occ.  0.00000000
 
ion      s      p      d    tot
  1  0.000  0.059  0.000  0.059
  2  0.000  0.059  0.000  0.059
  3  0.000  0.059  0.000  0.059
  4  0.000  0.059  0.000  0.059
  5  0.000  0.002  0.021  0.023
  6  0.000  0.002  0.021  0.023
  7  0.000  0.002  0.021  0.023
  8  0.000  0.002  0.021  0.023
tot  0.000  0.243  0.085  0.328
 
band  47 # energy    9.15210847 # occ.  0.00000000
 
ion      s      p      d    tot
  1  0.055  0.000  0.000  0.055
  2  0.055  0.000  0.000  0.055
  3  0.055  0.000  0.000  0.055
  4  0.055  0.000  0.000  0.055
  5  0.002  0.000  0.000  0.002
  6  0.002  0.000  0.000  0.002
  7  0.002  0.000  0.000  0.002
  8  0.002  0.000  0.000  0.002
tot  0.229  0.000  0.000  0.229
 
band  48 # energy   10.28077838 # occ.  0.00000000
 
ion      s      p      d    tot
  1  0.023  0.000  0.002  0.025
  2  0.008  0.000  0.002  0.011
  3  0.035  0.000  0.001  0.036
  4  0.003  0.000  0.003  0.006
  5  0.000  0.081  0.005  0.085
  6  0.000  0.081  0.005  0.085
  7  0.000  0.081  0.005  0.085
  8  0.000  0.081  0.005  0.085
tot  0.070  0.323  0.026  0.419
 

 k-point    2 :    0.25000000 0.00000000 0.00000000     weight = 0.09375000

band   1 # energy   -8.97666818 # occ.  2.00000000
 
ion      s      p      d    tot
  1  0.012  0.000  0.003  0.015
  2  0.012  0.000  0.003  0.015
  3  0.012  0.000  0.003  0.015
  4  0.012  0.000  0.003  0.015
  5  0.146  0.000  0.000  0.146
  6  0.146  0.000  0.000  0.146
  7  0.146  0.000  0.000  0.146
  8  0.146  0.000  0.000  0.146
tot  0.629  0.002  0.013  0.644
 
band   2 # energy   -8.66355034 # occ.  2.00000000
 
ion      s      p      d    tot
  1  0.002  0.002  0.026  0.031
  2  0.002  0.002  0.026  0.031
  3  0.002  0.002  0.026  0.031
  4  0.002  0.002  0.026  0.031
  5  0.146  0.000  0.000  0.146
  6  0.146  0.000  0.000  0.146
  7  0.146  0.000  0.000  0.146
  8  0.146  0.000  0.000  0.146
tot  0.593  0.010  0.104  0.707
 
band   3 # energy   -8.60303338 # occ.  2.00000000
 
ion      s      p      d    tot
  1  0.000  0.003  0.033  0.036
  2  0.000  0.003  0.033  0.036
  3  0.000  0.003  0.033  0.036
  4  0.000  0.003  0.033  0.036
  5  0.027  0.000  0.000  0.027
  6  0.263  0.000  0.000  0.263
  7  0.263  0.000  0.000  0.263
  8  0.027  0.000  0.000  0.027
tot  0.580  0.011  0.131  0.722
 
band   4 # energy   -8.60303338 # occ.  2.00000000
 
ion      s      p      d    tot
  1  0.000  0.003  0.033  0.036
  2  0.000  0.003  0.033  0.036
  3  0.000  0.003  0.033  0.036
  4  0.000  0.003  0.033  0.036
  5  0.263  0.000  0.000  0.263
  6  0.027  0.000  0.000  0.027
  7  0.027  0.000  0.000  0.027
  8  0.263  0.000  0.000  0.263
tot  0.580  0.011  0.131  0.722
 
band   5 # energy   -6.28742039 # occ.  2.00000000
 
ion      s      p      d    tot
  1  0.000  0.000  0.228  0.229
  2  0.000  0.000  0.228  0.229
  3  0.000  0.000  0.228  0.229
  4  0.000  0.000  0.228  0.229
  5  0.000  0.004  0.000  0.004
  6  0.000  0.004  0.000  0.004
  7  0.000  0.004  0.000  0.004
  8  0.000  0.004  0.000  0.004
tot  0.000  0.016  0.915  0.930
 
band   6 # energy   -6.28742039 # occ.  2.00000000
 
ion      s      p      d    tot
  1  0.000  0.000  0.228  0.229
  2  0.000  0.000  0.228  0.229
  3  0.000  0.000  0.228  0.229
  4  0.000  0.000  0.228  0.229
  5  0.000  0.004  0.000  0.004
  6  0.000  0.004  0.000  0.004
  7  0.000  0.004  0.000  0.004
  8  0.000  0.004  0.000  0.004
tot  0.000  0.016  0.915  0.930
 
band   7 # energy   -6.26101766 # occ.  2.00000000
 
ion      s      p      d    tot
  1  0.001  0.000  0.224  0.225
  2  0.001  0.000  0.224  0.225
  3  0.001  0.000  0.224  0.225
  4  0.001  0.000  0.224  0.225
  5  0.001  0.004  0.000  0.006
  6  0.001  0.004  0.000  0.006
  7  0.001  0.004  0.000  0.006
  8  0.001  0.004  0.000  0.006
tot  0.008  0.017  0.897  0.921
 
band   8 # energy   -6.19327457 # occ.  2.00000000
 
ion      s      p      d    tot
  1  0.000  0.000  0.233  0.233
  2  0.000  0.000  0.233  0.233
  3  0.000  0.000  0.233  0.233
  4  0.000  0.000  0.233  0.233
  5  0.000  0.002  0.000  0.002
  6  0.000  0.002  0.000  0.002
  7  0.000  0.002  0.000  0.002
  8  0.000  0.002  0.000  0.002
tot  0.000  0.009  0.934  0.943
 
band   9 # energy   -6.19327457 # occ.  2.00000000
 
ion      s      p      d    tot
  1  0.000  0.000  0.233  0.233
  2  0.000  0.000  0.233  0.233
  3  0.000  0.000  0.233  0.233
  4  0.000  0.000  0.233  0.233
  5  0.000  0.002  0.000  0.002
  6  0.000  0.002  0.000  0.002
  7  0.000  0.002  0.000  0.002
  8  0.000  0.002  0.000  0.002
tot  0.000  0.009  0.934  0.943
 
band  10 # energy   -6.19104943 # occ.  2.00000000
 
ion      s      p      d    tot
  1  0.000  0.000  0.254  0.254
  2  0.000  0.000  0.254  0.254
  3  0.000  0.000  0.210  0.210
  4  0.000  0.000  0.210  0.210
  5  0.000  0.002  0.000  0.003
  6  0.000  0.002  0.000  0.003
  7  0.000  0.002  0.000  0.003
  8  0.000  0.002  0.000  0.003
tot  0.000  0.010  0.927  0.938
 
band  11 # energy   -6.19104943 # occ.  2.00000000
 
ion      s      p      d    tot
  1  0.000  0.000  0.210  0.210
  2  0.000  0.000  0.210  0.210
  3  0.000  0.000  0.254  0.254
  4  0.000  0.000  0.254  0.254
  5  0.000  0.002  0.000  0.003
  6  0.000  0.002  0.000  0.003
  7  0.000  0.002  0.000  0.003
  8  0.000  0.002  0.000  0.003
tot  0.000  0.010  0.927  0.938
 
band  12 # energy   -6.18966934 # occ.  2.00000000
 
ion      s      p      d    tot
  1  0.000  0.000  0.234  0.234
  2  0.000  0.000  0.234  0.234
  3  0.000  0.000  0.234  0.234
  4  0.000  0.000  0.234  0.234
  5  0.000  0.002  0.000  0.002
  6  0.000  0.002  0.000  0.002
  7  0.000  0.002  0.000  0.002
  8  0.000  0.002  0.000  0.002
tot  0.000  0.007  0.936  0.943
 
band  13 # energy   -6.18966934 # occ.  2.00000000
 
ion      s      p      d    tot
  1  0.000  0.000  0.234  0.234
  2  0.000  0.000  0.234  0.234
  3  0.000  0.000  0.234  0.234
  4  0.000  0.000  0.234  0.234
  5  0.000  0.002  0.000  0.002
  6  0.000  0.002  0.000  0.002
  7  0.000  0.002  0.000  0.002
  8  0.000  0.002  0.000  0.002
tot  0.000  0.007  0.936  0.943
 
band  14 # energy   -6.16166860 # occ.  2.00000000
 
ion      s      p      d    tot
  1  0.000  0.000  0.231  0.231
  2  0.000  0.000  0.231  0.231
  3  0.000  0.000  0.231  0.231
  4  0.000  0.000  0.231  0.231
  5  0.000  0.002  0.000  0.002
  6  0.000  0.002  0.000  0.002
  7  0.000  0.002  0.000  0.002
  8  0.000  0.002  0.000  0.002
tot  0.002  0.006  0.922  0.930
 
band  15 # energy   -6.13918125 # occ.  2.00000000
 
ion      s      p      d    tot
  1  0.000  0.000  0.234  0.234
  2  0.000  0.000  0.234  0.234
  3  0.000  0.000  0.235  0.235
  4  0.000  0.000  0.235  0.235
  5  0.000  0.001  0.000  0.001
  6  0.000  0.001  0.000  0.001
  7  0.000  0.001  0.000  0.001
  8  0.000  0.001  0.000  0.001
tot  0.000  0.003  0.938  0.941
 
band  16 # energy   -6.13918125 # occ.  2.00000000
 
ion      s      p      d    tot
  1  0.000  0.000  0.235  0.235
  2  0.000  0.000  0.235  0.235
  3  0.000  0.000  0.234  0.234
  4  0.000  0.000  0.234  0.234
  5  0.000  0.001  0.000  0.001
  6  0.000  0.001  0.000  0.001
  7  0.000  0.001  0.000  0.001
  8  0.000  0.001  0.000  0.001
tot  0.000  0.003  0.938  0.941
 
band  17 # energy   -6.09535395 # occ.  2.00000000
 
ion      s      p      d    tot
  1  0.000  0.000  0.236  0.236
  2  0.000  0.000  0.236  0.236
  3  0.000  0.000  0.236  0.236
  4  0.000  0.000  0.236  0.236
  5  0.000  0.000  0.000  0.000
  6  0.000  0.000  0.000  0.000
  7  0.000  0.000  0.000  0.000
  8  0.000  0.000  0.000  0.000
tot  0.000  0.000  0.947  0.947
 
band  18 # energy   -6.08667382 # occ.  2.00000000
 
ion      s      p      d    tot
  1  0.000  0.000  0.237  0.237
  2  0.000  0.000  0.237  0.237
  3  0.000  0.000  0.237  0.237
  4  0.000  0.000  0.237  0.237
  5  0.000  0.000  0.000  0.000
  6  0.000  0.000  0.000  0.000
  7  0.000  0.000  0.000  0.000
  8  0.000  0.000  0.000  0.000
tot  0.000  0.000  0.949  0.949
 
band  19 # energy   -6.07309428 # occ.  2.00000000
 
ion      s      p      d    tot
  1  0.000  0.000  0.237  0.237
  2  0.000  0.000  0.237  0.237
  3  0.000  0.000  0.238  0.238
  4  0.000  0.000  0.238  0.238
  5  0.000  0.000  0.000  0.000
  6  0.000  0.000  0.000  0.000
  7  0.000  0.000  0.000  0.000
  8  0.000  0.000  0.000  0.000
tot  0.000  0.000  0.950  0.950
 
band  20 # energy   -6.07309428 # occ.  2.00000000
 
ion      s      p      d    tot
  1  0.000  0.000  0.238  0.238
  2  0.000  0.000  0.238  0.238
  3  0.000  0.000  0.237  0.237
  4  0.000  0.000  0.237  0.237
  5  0.000  0.000  0.000  0.000
  6  0.000  0.000  0.000  0.000
  7  0.000  0.000  0.000  0.000
  8  0.000  0.000  0.000  0.000
tot  0.000  0.000  0.950  0.950
 
band  21 # energy   -6.06862074 # occ.  2.00000000
 
ion      s      p      d    tot
  1  0.000  0.000  0.238  0.238
  2  0.000  0.000  0.238  0.238
  3  0.000  0.000  0.238  0.238
  4  0.000  0.000  0.238  0.238
  5  0.000  0.000  0.000  0.000
  6  0.000  0.000  0.000  0.000
  7  0.000  0.000  0.000  0.000
  8  0.000  0.000  0.000  0.000
tot  0.000  0.000  0.951  0.951
 
band  22 # energy   -5.82326676 # occ.  2.00000000
 
ion      s      p      d    tot
  1  0.002  0.000  0.208  0.210
  2  0.002  0.000  0.208  0.210
  3  0.002  0.000  0.208  0.210
  4  0.002  0.000  0.208  0.210
  5  0.017  0.001  0.000  0.019
  6  0.017  0.001  0.000  0.019
  7  0.017  0.001  0.000  0.019
  8  0.017  0.001  0.000  0.019
tot  0.076  0.007  0.832  0.915
 
band  23 # energy   -5.63683536 # occ.  2.00000000
 
ion      s      p      d    tot
  1  0.000  0.001  0.206  0.207
  2  0.000  0.001  0.206  0.207
  3  0.000  0.001  0.206  0.207
  4  0.000  0.001  0.206  0.207
  5  0.023  0.000  0.000  0.023
  6  0.028  0.000  0.000  0.028
  7  0.028  0.000  0.000  0.028
  8  0.023  0.000  0.000  0.023
tot  0.102  0.004  0.823  0.929
 
band  24 # energy   -5.63683536 # occ.  2.00000000
 
ion      s      p      d    tot
  1  0.000  0.001  0.206  0.207
  2  0.000  0.001  0.206  0.207
  3  0.000  0.001  0.206  0.207
  4  0.000  0.001  0.206  0.207
  5  0.028  0.000  0.000  0.028
  6  0.023  0.000  0.000  0.023
  7  0.023  0.000  0.000  0.023
  8  0.028  0.000  0.000  0.028
tot  0.102  0.004  0.823  0.929
 
band  25 # energy   -2.16824875 # occ.  2.00000000
 
ion      s      p      d    tot
  1  0.084  0.000  0.003  0.087
  2  0.084  0.000  0.003  0.087
  3  0.040  0.000  0.004  0.044
  4  0.040  0.000  0.004  0.044
  5  0.000  0.053  0.001  0.054
  6  0.000  0.053  0.001  0.054
  7  0.000  0.053  0.001  0.054
  8  0.000  0.053  0.001  0.054
tot  0.248  0.213  0.018  0.478
 
band  26 # energy   -2.16824875 # occ.  2.00000000
 
ion      s      p      d    tot
  1  0.040  0.000  0.004  0.044
  2  0.040  0.000  0.004  0.044
  3  0.084  0.000  0.003  0.087
  4  0.084  0.000  0.003  0.087
  5  0.000  0.053  0.001  0.054
  6  0.000  0.053  0.001  0.054
  7  0.000  0.053  0.001  0.054
  8  0.000  0.053  0.001  0.054
tot  0.248  0.213  0.018  0.478
 
band  27 # energy   -1.79570303 # occ.  2.00000000
 
ion      s      p      d    tot
  1  0.055  0.001  0.010  0.065
  2  0.055  0.001  0.010  0.065
  3  0.055  0.001  0.010  0.065
  4  0.055  0.001  0.010  0.065
  5  0.007  0.053  0.001  0.061
  6  0.007  0.053  0.001  0.061
  7  0.007  0.053  0.001  0.061
  8  0.007  0.053  0.001  0.061
tot  0.247  0.215  0.041  0.503
 
band  28 # energy   -0.09113822 # occ.  2.00000000
 
ion      s      p      d    tot
  1  0.000  0.004  0.006  0.010
  2  0.000  0.004  0.006  0.010
  3  0.001  0.029  0.007  0.037
  4  0.001  0.029  0.007  0.037
  5  0.000  0.088  0.000  0.088
  6  0.000  0.088  0.000  0.088
  7  0.000  0.088  0.000  0.088
  8  0.000  0.088  0.000  0.088
tot  0.003  0.416  0.026  0.445
 
band  29 # energy   -0.09113822 # occ.  2.00000000
 
ion      s      p      d    tot
  1  0.001  0.029  0.007  0.037
  2  0.001  0.029  0.007  0.037
  3  0.000  0.004  0.006  0.010
  4  0.000  0.004  0.006  0.010
  5  0.000  0.088  0.000  0.088
  6  0.000  0.088  0.000  0.088
  7  0.000  0.088  0.000  0.088
  8  0.000  0.088  0.000  0.088
tot  0.003  0.416  0.026  0.445
 
band  30 # energy   -0.02201372 # occ.  2.00000000
 
ion      s      p      d    tot
  1  0.000  0.019  0.003  0.022
  2  0.000  0.019  0.003  0.022
  3  0.000  0.019  0.003  0.022
  4  0.000  0.019  0.003  0.022
  5  0.000  0.136  0.000  0.136
  6  0.000  0.039  0.000  0.040
  7  0.000  0.039  0.000  0.040
  8  0.000  0.136  0.000  0.136
tot  0.000  0.426  0.013  0.439
 
band  31 # energy   -0.02201372 # occ.  2.00000000
 
ion      s      p      d    tot
  1  0.000  0.019  0.003  0.022
  2  0.000  0.019  0.003  0.022
  3  0.000  0.019  0.003  0.022
  4  0.000  0.019  0.003  0.022
  5  0.000  0.039  0.000  0.040
  6  0.000  0.136  0.000  0.136
  7  0.000  0.136  0.000  0.136
  8  0.000  0.039  0.000  0.040
tot  0.000  0.426  0.013  0.439
 
band  32 # energy    0.31544134 # occ.  2.00000000
 
ion      s      p      d    tot
  1  0.000  0.017  0.006  0.023