       N       E                     dE             d eps       ncg     rms          ort
DAV:   1     0.393013771515E+05    0.39301E+05   -0.10863E+06  3528   0.494E+03
DAV:   2     0.964542262373E+04   -0.29656E+05   -0.29045E+05  3528   0.168E+03
DAV:   3     0.215407787561E+04   -0.74913E+04   -0.73085E+04  3528   0.534E+02
DAV:   4     0.495013947498E+03   -0.16591E+04   -0.15854E+04  3528   0.223E+02
DAV:   5     0.276240824380E+03   -0.21877E+03   -0.21494E+03  3528   0.863E+01
SDA:   6    -0.444726481576E+03   -0.72097E+03   -0.21494E+03  3528   0.125E+03 0.000E+00
CGA:   7    -0.466167730131E+03   -0.21441E+02   -0.21510E+02  3528   0.447E+02 0.797E+00
CGA:   8    -0.474794982449E+03   -0.86273E+01   -0.86277E+01  3528   0.931E+01-0.140E-01
CGA:   9    -0.477858012948E+03   -0.30630E+01   -0.30630E+01  3528   0.300E+01-0.113E-01
CGA:  10    -0.478796442597E+03   -0.93843E+00   -0.93937E+00  3528   0.113E+01-0.941E-02
CGA:  11    -0.479042443186E+03   -0.24600E+00   -0.24602E+00  3528   0.449E+00-0.189E-02
CGA:  12    -0.479170167441E+03   -0.12772E+00   -0.12787E+00  3528   0.114E+00-0.183E-02
CGA:  13    -0.479209692476E+03   -0.39525E-01   -0.39597E-01  3528   0.355E-01-0.496E-03
CGA:  14    -0.479220676262E+03   -0.10984E-01   -0.10984E-01  3528   0.160E-01 0.181E-04
CGA:  15    -0.479224124178E+03   -0.34479E-02   -0.34453E-02  3528   0.650E-02-0.263E-03
CGA:  16    -0.479225936929E+03   -0.18128E-02   -0.18111E-02  3528   0.209E-02 0.301E-04
CGA:  17    -0.479226708623E+03   -0.77169E-03   -0.77964E-03  3528   0.819E-03-0.548E-04
CGA:  18    -0.479226966351E+03   -0.25773E-03   -0.25615E-03  3528   0.322E-03 0.185E-04
CGA:  19    -0.479227065793E+03   -0.99442E-04   -0.10052E-03  3528   0.167E-03-0.164E-04
CGA:  20    -0.479227097232E+03   -0.31439E-04   -0.32151E-04  3528   0.563E-04 0.176E-04
CGA:  21    -0.479227118652E+03   -0.21420E-04   -0.21795E-04  3528   0.250E-04-0.341E-05
CGA:  22    -0.479227127436E+03   -0.87837E-05   -0.96415E-05  3528   0.171E-04-0.522E-05
CGA:  23    -0.479227129130E+03   -0.16941E-05   -0.20342E-05  3528   0.644E-05 0.328E-05
CGA:  24    -0.479227130335E+03   -0.12049E-05   -0.13083E-05  3528   0.289E-05 0.131E-05
CGA:  25    -0.479227131000E+03   -0.66585E-06   -0.16861E-05  3528   0.743E-05-0.427E-05
CGA:  26    -0.479227131801E+03   -0.80083E-06   -0.10260E-05  3528   0.110E-05 0.189E-05
CGA:  27    -0.479227132201E+03   -0.39928E-06   -0.41429E-06  3528   0.512E-06-0.308E-06
CGA:  28    -0.479227132472E+03   -0.27156E-06    0.10383E-06  3528   0.272E-06-0.649E-07
CGA:  29    -0.479227132510E+03   -0.37471E-07   -0.42402E-07  3528   0.143E-06 0.651E-07
CGA:  30    -0.479227132502E+03    0.78217E-08   -0.12905E-07  3528   0.830E-07 0.117E-06
   1 F= -.47922713E+03 E0= -.47922713E+03  d E =0.000000E+00
