 vasp.5.4.1 05Feb16 (build Jun 25 2016 17:05:53) complex                        
  
 executed on           IFC91_ompi date 2016.06.30  08:01:25
 running on  672 total cores
 distrk:  each k-point on   96 cores,    7 groups
 distr:  one band on NCORES_PER_BAND=  24 cores,    4 groups


--------------------------------------------------------------------------------------------------------


 INCAR:
 POTCAR:    PAW_PBE C 08Apr2002                   
 POTCAR:    PAW_PBE N 08Apr2002                   
 POTCAR:    PAW_PBE H 15Jun2001                   
 POTCAR:    PAW_PBE Pb_d 06Sep2000                
 POTCAR:    PAW_PBE I 08Apr2002                   

 ----------------------------------------------------------------------------- 
|                                                                             |
|           W    W    AA    RRRRR   N    N  II  N    N   GGGG   !!!           |
|           W    W   A  A   R    R  NN   N  II  NN   N  G    G  !!!           |
|           W    W  A    A  R    R  N N  N  II  N N  N  G       !!!           |
|           W WW W  AAAAAA  RRRRR   N  N N  II  N  N N  G  GGG   !            |
|           WW  WW  A    A  R   R   N   NN  II  N   NN  G    G                |
|           W    W  A    A  R    R  N    N  II  N    N   GGGG   !!!           |
|                                                                             |
|      You have enabled k-point parallelism (KPAR>1).                         |
|      This developmental code was originally  written by Paul Kent at ORNL,  |
|      and carefully double checked in Vienna.                                |
|      GW as well as linear response parallelism added by Martijn Marsman     |
|      and Georg Kresse.                                                      |
|      Carefully verify results versus KPAR=1.                                |
|      Report problems to Paul Kent and Vienna.                               |
|                                                                             |
 ----------------------------------------------------------------------------- 

 POTCAR:    PAW_PBE C 08Apr2002                   
   VRHFIN =C: s2p2                                                              
   LEXCH  = PE                                                                  
   EATOM  =   147.1560 eV,   10.8157 Ry                                         
                                                                                
   TITEL  = PAW_PBE C 08Apr2002                                                 
   LULTRA =        F    use ultrasoft PP ?                                      
   IUNSCR =        1    unscreen: 0-lin 1-nonlin 2-no                           
   RPACOR =    1.200    partial core radius                                     
   POMASS =   12.011; ZVAL   =    4.000    mass and valenz                      
   RCORE  =    1.500    outmost cutoff radius                                   
   RWIGS  =    1.630; RWIGS  =    0.863    wigner-seitz radius (au A)           
   ENMAX  =  400.000; ENMIN  =  300.000 eV                                      
   ICORE  =        2    local potential                                         
   LCOR   =        T    correct aug charges                                     
   LPAW   =        T    paw PP                                                  
   EAUG   =  644.873                                                            
   DEXC   =    0.000                                                            
   RMAX   =    1.529    core radius for proj-oper                               
   RAUG   =    1.300    factor for augmentation sphere                          
   RDEP   =    1.501    radius for radial grids                                 
   RDEPT  =    1.300    core radius for aug-charge                              
                                                                                
   Atomic configuration                                                         
    4 entries                                                                   
     n  l   j            E        occ.                                          
     1  0  0.50      -273.3789   2.0000                                         
     2  0  0.50       -13.7508   2.0000                                         
     2  1  0.50        -5.2854   2.0000                                         
     3  2  1.50        -5.4423   0.0000                                         
   Description                                                                  
     l       E           TYP  RCUT    TYP  RCUT                                 
     0    -13.7508458     23  1.200                                             
     0     -8.2022199     23  1.200                                             
     1     -5.2854383     23  1.500                                             
     1     34.0145650     23  1.500                                             
     2     -5.4423304      7  1.500                                             
  local pseudopotential read in
  partial core-charges read in
  partial kinetic energy density read in
  atomic valenz-charges read in
  non local Contribution for L=           0  read in
    real space projection operators read in
  non local Contribution for L=           0  read in
    real space projection operators read in
  non local Contribution for L=           1  read in
    real space projection operators read in
  non local Contribution for L=           1  read in
    real space projection operators read in
    PAW grid and wavefunctions read in
 
   number of l-projection  operators is LMAX  =           4
   number of lm-projection operators is LMMAX =           8
 
 POTCAR:    PAW_PBE N 08Apr2002                   
   VRHFIN =N: s2p3                                                              
   LEXCH  = PE                                                                  
   EATOM  =   264.5486 eV,   19.4438 Ry                                         
                                                                                
   TITEL  = PAW_PBE N 08Apr2002                                                 
   LULTRA =        F    use ultrasoft PP ?                                      
   IUNSCR =        1    unscreen: 0-lin 1-nonlin 2-no                           
   RPACOR =    1.200    partial core radius                                     
   POMASS =   14.001; ZVAL   =    5.000    mass and valenz                      
   RCORE  =    1.500    outmost cutoff radius                                   
   RWIGS  =    1.400; RWIGS  =    0.741    wigner-seitz radius (au A)           
   ENMAX  =  400.000; ENMIN  =  300.000 eV                                      
   ICORE  =        2    local potential                                         
   LCOR   =        T    correct aug charges                                     
   LPAW   =        T    paw PP                                                  
   EAUG   =  627.112                                                            
   DEXC   =    0.000                                                            
   RMAX   =    1.529    core radius for proj-oper                               
   RAUG   =    1.300    factor for augmentation sphere                          
   RDEP   =    1.514    radius for radial grids                                 
   RDEPT  =    1.338    core radius for aug-charge                              
                                                                                
   Atomic configuration                                                         
    4 entries                                                                   
     n  l   j            E        occ.                                          
     1  0  0.50      -384.7179   2.0000                                         
     2  0  0.50       -18.5828   2.0000                                         
     2  1  0.50        -7.0898   3.0000                                         
     3  2  1.50        -6.8029   0.0000                                         
   Description                                                                  
     l       E           TYP  RCUT    TYP  RCUT                                 
     0    -18.5828119     23  1.200                                             
     0    -13.5018863     23  1.200                                             
     1     -7.0897853     23  1.500                                             
     1      9.5240782     23  1.500                                             
     2     -6.8029130      7  1.500                                             
  local pseudopotential read in
  partial core-charges read in
  partial kinetic energy density read in
  atomic valenz-charges read in
  non local Contribution for L=           0  read in
    real space projection operators read in
  non local Contribution for L=           0  read in
    real space projection operators read in
  non local Contribution for L=           1  read in
    real space projection operators read in
  non local Contribution for L=           1  read in
    real space projection operators read in
    PAW grid and wavefunctions read in
 
   number of l-projection  operators is LMAX  =           4
   number of lm-projection operators is LMMAX =           8
 
 POTCAR:    PAW_PBE H 15Jun2001                   
   VRHFIN =H: ultrasoft test                                                    
   LEXCH  = PE                                                                  
   EATOM  =    12.4884 eV,    0.9179 Ry                                         
                                                                                
   TITEL  = PAW_PBE H 15Jun2001                                                 
   LULTRA =        F    use ultrasoft PP ?                                      
   IUNSCR =        0    unscreen: 0-lin 1-nonlin 2-no                           
   RPACOR =    0.000    partial core radius                                     
   POMASS =    1.000; ZVAL   =    1.000    mass and valenz                      
   RCORE  =    1.100    outmost cutoff radius                                   
   RWIGS  =    0.700; RWIGS  =    0.370    wigner-seitz radius (au A)           
   ENMAX  =  250.000; ENMIN  =  200.000 eV                                      
   RCLOC  =    0.701    cutoff for local pot                                    
   LCOR   =        T    correct aug charges                                     
   LPAW   =        T    paw PP                                                  
   EAUG   =  400.000                                                            
   RMAX   =    1.123    core radius for proj-oper                               
   RAUG   =    1.200    factor for augmentation sphere                          
   RDEP   =    1.112    radius for radial grids                                 
   RDEPT  =    0.926    core radius for aug-charge                              
                                                                                
   Atomic configuration                                                         
    2 entries                                                                   
     n  l   j            E        occ.                                          
     1  0  0.50        -6.4927   1.0000                                         
     2  1  0.50        -3.4015   0.0000                                         
   Description                                                                  
     l       E           TYP  RCUT    TYP  RCUT                                 
     0     -6.4927494     23  1.100                                             
     0      6.8029130     23  1.100                                             
     1     -4.0817478     23  1.100                                             
  local pseudopotential read in
  atomic valenz-charges read in
  non local Contribution for L=           0  read in
    real space projection operators read in
  non local Contribution for L=           0  read in
    real space projection operators read in
  non local Contribution for L=           1  read in
    real space projection operators read in
    PAW grid and wavefunctions read in
 
   number of l-projection  operators is LMAX  =           3
   number of lm-projection operators is LMMAX =           5
 
 POTCAR:    PAW_PBE Pb_d 06Sep2000                
   VRHFIN =Pb:                                                                  
   LEXCH  = PE                                                                  
   EATOM  =  1661.6185 eV,  122.1255 Ry                                         
                                                                                
   TITEL  = PAW_PBE Pb_d 06Sep2000                                              
   LULTRA =        F    use ultrasoft PP ?                                      
   IUNSCR =        1    unscreen: 0-lin 1-nonlin 2-no                           
   RPACOR =    2.200    partial core radius                                     
   POMASS =  207.200; ZVAL   =   14.000    mass and valenz                      
   RCORE  =    2.500    outmost cutoff radius                                   
   RWIGS  =    3.260; RWIGS  =    1.725    wigner-seitz radius (au A)           
   ENMAX  =  237.835; ENMIN  =  178.376 eV                                      
   ICORE  =        3    local potential                                         
   LCOR   =        T    correct aug charges                                     
   LPAW   =        T    paw PP                                                  
   EAUG   =  391.914                                                            
   DEXC   =    0.000                                                            
   RMAX   =    2.565    core radius for proj-oper                               
   RAUG   =    1.300    factor for augmentation sphere                          
   RDEP   =    2.643    radius for radial grids                                 
   RDEPT  =    2.092    core radius for aug-charge                              
                                                                                
   Atomic configuration                                                         
   16 entries                                                                   
     n  l   j            E        occ.                                          
     1  0  0.50    -88091.8466   2.0000                                         
     2  0  0.50    -15753.4197   2.0000                                         
     2  1  1.50    -13508.1797   6.0000                                         
     3  0  0.50     -3781.7194   2.0000                                         
     3  1  1.50     -3138.2529   6.0000                                         
     3  2  2.50     -2483.2977  10.0000                                         
     4  0  0.50      -856.2895   2.0000                                         
     4  1  1.50      -645.4942   6.0000                                         
     4  2  2.50      -401.8768  10.0000                                         
     4  3  3.50      -132.9059  14.0000                                         
     5  0  0.50      -144.0950   2.0000                                         
     5  1  1.50       -85.7879   6.0000                                         
     5  2  2.50       -21.1769  10.0000                                         
     6  0  0.50       -12.0372   2.0000                                         
     6  1  1.50        -3.4971   2.0000                                         
     5  3  2.50        -2.7212   0.0000                                         
   Description                                                                  
     l       E           TYP  RCUT    TYP  RCUT                                 
     2    -21.1768523     23  2.500                                             
     2      1.3605826     23  2.500                                             
     0    -12.0371562     23  2.500                                             
     0     13.6058260     23  2.500                                             
     1     -3.4971339     23  2.500                                             
     1     13.6058260     23  2.500                                             
     3     -1.3605826      7  2.500                                             
  local pseudopotential read in
  partial core-charges read in
  partial kinetic energy density read in
  atomic valenz-charges read in
  non local Contribution for L=           2  read in
    real space projection operators read in
  non local Contribution for L=           2  read in
    real space projection operators read in
  non local Contribution for L=           0  read in
    real space projection operators read in
  non local Contribution for L=           0  read in
    real space projection operators read in
  non local Contribution for L=           1  read in
    real space projection operators read in
  non local Contribution for L=           1  read in
    real space projection operators read in
    PAW grid and wavefunctions read in
 
   number of l-projection  operators is LMAX  =           6
   number of lm-projection operators is LMMAX =          18
 
 POTCAR:    PAW_PBE I 08Apr2002                   
   VRHFIN =I : s2p5                                                             
   LEXCH  = PE                                                                  
   EATOM  =   315.8678 eV,   23.2156 Ry                                         
                                                                                
   TITEL  = PAW_PBE I 08Apr2002                                                 
   LULTRA =        F    use ultrasoft PP ?                                      
   IUNSCR =        1    unscreen: 0-lin 1-nonlin 2-no                           
   RPACOR =    2.200    partial core radius                                     
   POMASS =  126.904; ZVAL   =    7.000    mass and valenz                      
   RCORE  =    2.300    outmost cutoff radius                                   
   RWIGS  =    2.810; RWIGS  =    1.487    wigner-seitz radius (au A)           
   ENMAX  =  175.647; ENMIN  =  131.735 eV                                      
   ICORE  =        3    local potential                                         
   LCOR   =        T    correct aug charges                                     
   LPAW   =        T    paw PP                                                  
   EAUG   =  370.139                                                            
   DEXC   =    0.000                                                            
   RMAX   =    2.359    core radius for proj-oper                               
   RAUG   =    1.300    factor for augmentation sphere                          
   RDEP   =    2.392    radius for radial grids                                 
   RDEPT  =    2.170    core radius for aug-charge                              
                                                                                
   Atomic configuration                                                         
   13 entries                                                                   
     n  l   j            E        occ.                                          
     1  0  0.50    -32976.3739   2.0000                                         
     2  0  0.50     -5094.5933   2.0000                                         
     2  1  1.50     -4572.0131   6.0000                                         
     3  0  0.50     -1028.2813   2.0000                                         
     3  1  1.50      -859.0250   6.0000                                         
     3  2  2.50      -605.7620  10.0000                                         
     4  0  0.50      -180.5540   2.0000                                         
     4  1  1.50      -127.5306   6.0000                                         
     4  2  2.50       -50.2720  10.0000                                         
     5  0  0.50       -17.4058   2.0000                                         
     5  1  0.50        -7.0851   5.0000                                         
     5  2  1.50        -7.0750   0.0000                                         
     4  3  2.50        -7.0750   0.0000                                         
   Description                                                                  
     l       E           TYP  RCUT    TYP  RCUT                                 
     0    -17.4058016     23  2.300                                             
     0    -18.7663842     23  2.300                                             
     1     -7.0850686     23  2.300                                             
     1     -4.2150896     23  2.300                                             
     2     -7.0750295     23  2.300                                             
     3     -1.3605826     23  2.300                                             
  local pseudopotential read in
  partial core-charges read in
  partial kinetic energy density read in
  atomic valenz-charges read in
  non local Contribution for L=           0  read in
    real space projection operators read in
  non local Contribution for L=           0  read in
    real space projection operators read in
  non local Contribution for L=           1  read in
    real space projection operators read in
  non local Contribution for L=           1  read in
    real space projection operators read in
  non local Contribution for L=           2  read in
    real space projection operators read in
    PAW grid and wavefunctions read in
 
   number of l-projection  operators is LMAX  =           5
   number of lm-projection operators is LMMAX =          13
 

 ----------------------------------------------------------------------------- 
|                                                                             |
|  ADVICE TO THIS USER RUNNING 'VASP/VAMP'   (HEAR YOUR MASTER'S VOICE ...):  |
|                                                                             |
|      You have a (more or less) 'large supercell' and for larger cells       |
|      it might be more efficient to use real space projection opertators     |
|      So try LREAL= Auto  in the INCAR   file.                               |
|      Mind: At the moment your POTCAR file does not contain real space       |
|       projectors, and has to be modified,  BUT if you                       |
|      want to do an extremely  accurate calculation you might also keep the  |
|      reciprocal projection scheme          (i.e. LREAL=.FALSE.)             |
|                                                                             |
 ----------------------------------------------------------------------------- 

  PAW_PBE C 08Apr2002                   :
 energy of atom  1       EATOM= -147.1560
 kinetic energy error for atom=    0.0032 (will be added to EATOM!!)
  PAW_PBE N 08Apr2002                   :
 energy of atom  2       EATOM= -264.5486
 kinetic energy error for atom=    0.0061 (will be added to EATOM!!)
  PAW_PBE H 15Jun2001                   :
 energy of atom  3       EATOM=  -12.4884
 kinetic energy error for atom=    0.0002 (will be added to EATOM!!)
  PAW_PBE Pb_d 06Sep2000                :
 energy of atom  4       EATOM=-1661.6185
 kinetic energy error for atom=    0.0012 (will be added to EATOM!!)
  PAW_PBE I 08Apr2002                   :
 energy of atom  5       EATOM= -315.8678
 kinetic energy error for atom=    0.0003 (will be added to EATOM!!)
 
 
 POSCAR: C N H Pb I                              
  positions in direct lattice
  No initial velocities read in
 exchange correlation table for  LEXCH =        8
   RHO(1)=    0.500       N(1)  =     2000
   RHO(2)=  100.500       N(2)  =     4000
 


--------------------------------------------------------------------------------------------------------


 ion  position               nearest neighbor table
   1  0.198  0.250  0.229-  25 1.10  33 1.10  17 1.11   9 1.49
   2  0.696  0.250  0.229-  26 1.10  34 1.10  18 1.11  10 1.49
   3  0.196  0.750  0.229-  27 1.10  35 1.10  19 1.11  11 1.49
   4  0.698  0.750  0.229-  28 1.10  36 1.10  20 1.11  12 1.49
   5  0.196  0.250  0.729-  29 1.10  37 1.10  21 1.11  13 1.49
   6  0.698  0.250  0.729-  30 1.10  38 1.10  22 1.11  14 1.49
   7  0.198  0.750  0.729-  31 1.10  39 1.10  23 1.11  15 1.49
   8  0.696  0.750  0.729-  32 1.10  40 1.10  24 1.11  16 1.49
   9  0.311  0.250  0.260-  41 1.05  49 1.05  57 1.06   1 1.49
  10  0.798  0.250  0.288-  58 1.05  42 1.05  50 1.05   2 1.49
  11  0.298  0.750  0.288-  59 1.05  43 1.05  51 1.05   3 1.49
  12  0.811  0.750  0.260-  44 1.05  52 1.05  60 1.06   4 1.49
  13  0.298  0.250  0.788-  61 1.05  45 1.05  53 1.05   5 1.49
  14  0.811  0.250  0.760-  46 1.05  54 1.05  62 1.06   6 1.49
  15  0.311  0.750  0.760-  47 1.05  55 1.05  63 1.06   7 1.49
  16  0.798  0.750  0.788-  64 1.05  48 1.05  56 1.05   8 1.49
  17  0.195  0.250  0.142-   1 1.11
  18  0.715  0.250  0.144-   2 1.11
  19  0.215  0.750  0.144-   3 1.11
  20  0.695  0.750  0.142-   4 1.11
  21  0.215  0.250  0.644-   5 1.11
  22  0.695  0.250  0.642-   6 1.11
  23  0.195  0.750  0.642-   7 1.11
  24  0.715  0.750  0.644-   8 1.11
  25  0.158  0.322  0.260-   1 1.10
  26  0.651  0.322  0.251-   2 1.10
  27  0.151  0.822  0.251-   3 1.10
  28  0.658  0.822  0.260-   4 1.10
  29  0.151  0.322  0.751-   5 1.10
  30  0.658  0.322  0.760-   6 1.10
  31  0.158  0.822  0.760-   7 1.10
  32  0.651  0.822  0.751-   8 1.10
  33  0.158  0.177  0.260-   1 1.10
  34  0.651  0.177  0.251-   2 1.10
  35  0.151  0.677  0.251-   3 1.10
  36  0.658  0.677  0.260-   4 1.10
  37  0.151  0.177  0.751-   5 1.10
  38  0.658  0.177  0.760-   6 1.10
  39  0.158  0.677  0.760-   7 1.10
  40  0.651  0.677  0.751-   8 1.10
  41  0.352  0.318  0.232-   9 1.05
  42  0.844  0.318  0.270-  10 1.05
  43  0.344  0.818  0.270-  11 1.05
  44  0.852  0.818  0.232-  12 1.05
  45  0.344  0.318  0.770-  13 1.05
  46  0.852  0.318  0.732-  14 1.05
  47  0.352  0.818  0.732-  15 1.05
  48  0.844  0.818  0.770-  16 1.05
  49  0.352  0.182  0.232-   9 1.05
  50  0.844  0.182  0.270-  10 1.05
  51  0.344  0.682  0.270-  11 1.05
  52  0.852  0.682  0.232-  12 1.05
  53  0.344  0.182  0.770-  13 1.05
  54  0.852  0.182  0.732-  14 1.05
  55  0.352  0.682  0.732-  15 1.05
  56  0.844  0.682  0.770-  16 1.05
  57  0.321  0.250  0.342-   9 1.06
  58  0.785  0.250  0.369-  10 1.05
  59  0.285  0.750  0.369-  11 1.05
  60  0.821  0.750  0.342-  12 1.06
  61  0.285  0.250  0.869-  13 1.05
  62  0.821  0.250  0.842-  14 1.06
  63  0.321  0.750  0.842-  15 1.06
  64  0.785  0.750  0.869-  16 1.05
  65  0.472  0.498  0.489-  90 3.10  87 3.15  85 3.17  77 3.17  73 3.22  89 3.28
  66  0.972  0.502  0.489-  89 3.10  86 3.15  88 3.17  78 3.17  74 3.22  90 3.28
  67  0.472  0.002  0.489-  92 3.10  87 3.15  85 3.17  79 3.17  75 3.22  91 3.28
  68  0.972  0.998  0.489-  91 3.10  86 3.15  88 3.17  80 3.17  76 3.22  92 3.28
  69  0.472  0.502  0.989-  94 3.10  81 3.15  83 3.17  73 3.17  77 3.22  93 3.28
  70  0.972  0.498  0.989-  93 3.10  84 3.15  82 3.17  74 3.17  78 3.22  94 3.28
  71  0.472  0.998  0.989-  96 3.10  81 3.15  83 3.17  75 3.17  79 3.22  95 3.28
  72  0.972  0.002  0.989-  95 3.10  84 3.15  82 3.17  76 3.17  80 3.22  96 3.28
  73  0.455  0.504  0.238-  69 3.17  65 3.22
  74  0.955  0.496  0.238-  70 3.17  66 3.22
  75  0.455  0.996  0.238-  71 3.17  67 3.22
  76  0.955  0.004  0.238-  72 3.17  68 3.22
  77  0.455  0.496  0.738-  65 3.17  69 3.22
  78  0.955  0.504  0.738-  66 3.17  70 3.22
  79  0.455  0.004  0.738-  67 3.17  71 3.22
  80  0.955  0.996  0.738-  68 3.17  72 3.22
  81  0.477  0.250  0.011-  71 3.15  69 3.15
  82  0.922  0.250  0.013-  72 3.17  70 3.17
  83  0.422  0.750  0.013-  69 3.17  71 3.17
  84  0.977  0.750  0.011-  70 3.15  72 3.15
  85  0.422  0.250  0.513-  67 3.17  65 3.17
  86  0.977  0.250  0.511-  68 3.15  66 3.15
  87  0.477  0.750  0.511-  65 3.15  67 3.15
  88  0.922  0.750  0.513-  66 3.17  68 3.17
  89  0.216  0.532  0.461-  66 3.10  65 3.28
  90  0.716  0.468  0.461-  65 3.10  66 3.28
  91  0.216  0.968  0.461-  68 3.10  67 3.28
  92  0.716  0.032  0.461-  67 3.10  68 3.28
  93  0.216  0.468  0.961-  70 3.10  69 3.28
  94  0.716  0.532  0.961-  69 3.10  70 3.28
  95  0.216  0.032  0.961-  72 3.10  71 3.28
  96  0.716  0.968  0.961-  71 3.10  72 3.28
 
  LATTYP: Found a triclinic cell.
 ALAT       =    17.8238589327
 B/A-ratio  =     0.6989248630
 C/A-ratio  =     1.0156975818
 COS(alpha) =     0.0001355172
 COS(beta)  =     0.5146378593
 COS(gamma) =     0.6988877578
  
  Lattice vectors:
  
 A1 = (  -0.1406063366, -12.4576271275, -12.7466742118)
 A2 = (  -0.0011956322, -12.4575380825,   0.0007464135)
 A3 = ( -12.7162481321,  -0.0020049566, -12.8856194186)


Analysis of symmetry for initial positions (statically):
=====================================================================
 Subroutine PRICEL returns following result:
 
  LATTYP: Found a triclinic cell.
 ALAT       =     8.8524544993
 B/A-ratio  =     1.4072411401
 C/A-ratio  =     1.0225215175
 COS(alpha) =     0.0001355172
 COS(beta)  =     0.5046167836
 COS(gamma) =     0.7037964938
  
  Lattice vectors:
  
 A1 = (   6.2890165300,   6.2297269971,   0.0687261899)
 A2 = (   0.0011956322,  12.4575380825,  -0.0007464135)
 A3 = (   6.3581240661,   0.0010024783,   6.4428097093)
 
   4 primitive cells build up your supercell.
 

 Routine SETGRP: Setting up the symmetry group for a 
 triclinic supercell.


 Subroutine GETGRP returns: Found  1 space group operations
 (whereof  1 operations were pure point group operations)
 out of a pool of  2 trial point group operations.


The static configuration has the point symmetry C_1 .


Analysis of symmetry for dynamics (positions and initial velocities):
=====================================================================
 Subroutine PRICEL returns following result:
 
  LATTYP: Found a triclinic cell.
 ALAT       =     8.8524544993
 B/A-ratio  =     1.4072411401
 C/A-ratio  =     1.0225215175
 COS(alpha) =     0.0001355172
 COS(beta)  =     0.5046167836
 COS(gamma) =     0.7037964938
  
  Lattice vectors:
  
 A1 = (   6.2890165300,   6.2297269971,   0.0687261899)
 A2 = (   0.0011956322,  12.4575380825,  -0.0007464135)
 A3 = (   6.3581240661,   0.0010024783,   6.4428097093)
 
   4 primitive cells build up your supercell.
 

 Routine SETGRP: Setting up the symmetry group for a 
 triclinic supercell.


 Subroutine GETGRP returns: Found  1 space group operations
 (whereof  1 operations were pure point group operations)
 out of a pool of  2 trial point group operations.


The dynamic configuration has the point symmetry C_1 .


 Subroutine INISYM returns: Found  1 space group operations
 (whereof  1 operations are pure point group operations),
 and found     4 'primitive' translations

 
 
 KPOINTS: Automatic 3x3x3                         

Automatic generation of k-mesh.
Space group operators:
 irot       det(A)        alpha          n_x          n_y          n_z        tau_x        tau_y        tau_z
    1     1.000000     0.000000     1.000000     0.000000     0.000000     0.000000     0.000000     0.000000
 
 Subroutine IBZKPT returns following result:
 ===========================================
 
 Found     14 irreducible k-points:
 
 Following reciprocal coordinates:
            Coordinates               Weight
  0.000000  0.000000  0.000000      1.000000
  0.333333  0.000000  0.000000      2.000000
  0.000000  0.333333  0.000000      2.000000
  0.333333  0.333333  0.000000      2.000000
 -0.333333  0.333333  0.000000      2.000000
  0.000000  0.000000  0.333333      2.000000
  0.333333  0.000000  0.333333      2.000000
 -0.333333  0.000000  0.333333      2.000000
  0.000000  0.333333  0.333333      2.000000
  0.333333  0.333333  0.333333      2.000000
 -0.333333  0.333333  0.333333      2.000000
  0.000000 -0.333333  0.333333      2.000000
  0.333333 -0.333333  0.333333      2.000000
 -0.333333 -0.333333  0.333333      2.000000
 
 Following cartesian coordinates:
            Coordinates               Weight
  0.000000  0.000000  0.000000      1.000000
  0.026507 -0.000003 -0.000290      2.000000
 -0.000004  0.026758 -0.000000      2.000000
  0.026503  0.026755 -0.000290      2.000000
 -0.026511  0.026760  0.000290      2.000000
 -0.000287  0.000002  0.026152      2.000000
  0.026220 -0.000001  0.025862      2.000000
 -0.026794  0.000004  0.026442      2.000000
 -0.000291  0.026759  0.026152      2.000000
  0.026215  0.026757  0.025862      2.000000
 -0.026798  0.026762  0.026442      2.000000
 -0.000283 -0.026756  0.026152      2.000000
  0.026224 -0.026759  0.025862      2.000000
 -0.026790 -0.026753  0.026442      2.000000
 
 
 Subroutine IBZKPT_HF returns following result:
 ==============================================
 
 Found     27 k-points in 1st BZ
 the following     27 k-points will be used (e.g. in the exchange kernel)
 Following reciprocal coordinates:   # in IRBZ
  0.000000  0.000000  0.000000    0.03703704   1 t-inv F
  0.333333  0.000000  0.000000    0.03703704   2 t-inv F
  0.000000  0.333333  0.000000    0.03703704   3 t-inv F
  0.333333  0.333333  0.000000    0.03703704   4 t-inv F
 -0.333333  0.333333  0.000000    0.03703704   5 t-inv F
  0.000000  0.000000  0.333333    0.03703704   6 t-inv F
  0.333333  0.000000  0.333333    0.03703704   7 t-inv F
 -0.333333  0.000000  0.333333    0.03703704   8 t-inv F
  0.000000  0.333333  0.333333    0.03703704   9 t-inv F
  0.333333  0.333333  0.333333    0.03703704  10 t-inv F
 -0.333333  0.333333  0.333333    0.03703704  11 t-inv F
  0.000000 -0.333333  0.333333    0.03703704  12 t-inv F
  0.333333 -0.333333  0.333333    0.03703704  13 t-inv F
 -0.333333 -0.333333  0.333333    0.03703704  14 t-inv F
 -0.333333 -0.000000 -0.000000    0.03703704   2 t-inv T
 -0.000000 -0.333333 -0.000000    0.03703704   3 t-inv T
 -0.333333 -0.333333 -0.000000    0.03703704   4 t-inv T
  0.333333 -0.333333 -0.000000    0.03703704   5 t-inv T
 -0.000000 -0.000000 -0.333333    0.03703704   6 t-inv T
 -0.333333 -0.000000 -0.333333    0.03703704   7 t-inv T
  0.333333 -0.000000 -0.333333    0.03703704   8 t-inv T
 -0.000000 -0.333333 -0.333333    0.03703704   9 t-inv T
 -0.333333 -0.333333 -0.333333    0.03703704  10 t-inv T
  0.333333 -0.333333 -0.333333    0.03703704  11 t-inv T
 -0.000000  0.333333 -0.333333    0.03703704  12 t-inv T
 -0.333333  0.333333 -0.333333    0.03703704  13 t-inv T
  0.333333  0.333333 -0.333333    0.03703704  14 t-inv T


--------------------------------------------------------------------------------------------------------




 Dimension of arrays:
   k-points           NKPTS =     14   k-points in BZ     NKDIM =     27   number of bands    NBANDS=    252
   number of dos      NEDOS =    301   number of ions     NIONS =     96
   non local maximal  LDIM  =      6   non local SUM 2l+1 LMDIM =     18
   total plane-waves  NPLWV = ******
   max r-space proj   IRMAX =      1   max aug-charges    IRDMAX= 314103
   dimension x,y,z NGX =   112 NGY =  108 NGZ =  112
   dimension x,y,z NGXF=   224 NGYF=  216 NGZF=  224
   support grid    NGXF=   448 NGYF=  432 NGZF=  448
   ions per type =               8   8  48   8  24
 NGX,Y,Z   is equivalent  to a cutoff of  14.80, 14.41, 14.61 a.u.
 NGXF,Y,Z  is equivalent  to a cutoff of  29.61, 28.83, 29.21 a.u.


 I would recommend the setting:
   dimension x,y,z NGX =   109 NGY =  107 NGZ =  110
 SYSTEM =  MAPbI3-Cubic                            
 POSCAR =  C N H Pb I                              

 Startparameter for this run:
   NWRITE =      2    write-flag & timer
   PREC   = accura    normal or accurate (medium, high low for compatibility)
   ISTART =      0    job   : 0-new  1-cont  2-samecut
   ICHARG =      2    charge: 1-file 2-atom 10-const
   ISPIN  =      1    spin polarized calculation?
   LNONCOLLINEAR =      F non collinear calculations
   LSORBIT =      F    spin-orbit coupling
   INIWAV =      1    electr: 0-lowe 1-rand  2-diag
   LASPH  =      F    aspherical Exc in radial PAW
   METAGGA=      F    non-selfconsistent MetaGGA calc.

 Electronic Relaxation 1
   ENCUT  =  700.0 eV  51.45 Ry    7.17 a.u.  27.13 26.87 27.50*2*pi/ulx,y,z
   ENINI  =  700.0     initial cutoff
   ENAUG  =  644.9 eV  augmentation charge cutoff
   NELM   =     60;   NELMIN=  2; NELMDL= -5     # of ELM steps 
   EDIFF  = 0.1E-07   stopping-criterion for ELM
   LREAL  =      F    real-space projection
   NLSPLINE    = F    spline interpolate recip. space projectors
   LCOMPAT=      F    compatible to vasp.4.4
   GGA_COMPAT  = T    GGA compatible to vasp.4.4-vasp.4.6
   LMAXPAW     = -100 max onsite density
   LMAXMIX     =    2 max onsite mixed and CHGCAR
   VOSKOWN=      0    Vosko Wilk Nusair interpolation
   ROPT   =    0.00000   0.00000   0.00000   0.00000
   ROPT   =    0.00000
 Ionic relaxation
   EDIFFG = 0.1E-06   stopping-criterion for IOM
   NSW    =      0    number of steps for IOM
   NBLOCK =      1;   KBLOCK =      1    inner block; outer block 
   IBRION =     -1    ionic relax: 0-MD 1-quasi-New 2-CG
   NFREE  =      0    steps in history (QN), initial steepest desc. (CG)
   ISIF   =      2    stress and relaxation
   IWAVPR =     10    prediction:  0-non 1-charg 2-wave 3-comb
   ISYM   =      3    0-nonsym 1-usesym 2-fastsym
   LCORR  =      T    Harris-Foulkes like correction to forces

   POTIM  = 0.5000    time-step for ionic-motion
   TEIN   =    0.0    initial temperature
   TEBEG  =    0.0;   TEEND  =   0.0 temperature during run
   SMASS  =  -3.00    Nose mass-parameter (am)
   estimated Nose-frequenzy (Omega)   =  0.10E-29 period in steps =****** mass=  -0.362E-26a.u.
   SCALEE = 1.0000    scale energy and forces
   NPACO  =    256;   APACO  = 16.0  distance and # of slots for P.C.
   PSTRESS=    0.0 pullay stress

  Mass of Ions in am
   POMASS =  12.01 14.00  1.00207.20126.90
  Ionic Valenz
   ZVAL   =   4.00  5.00  1.00 14.00  7.00
  Atomic Wigner-Seitz radii
   RWIGS  =  -1.00 -1.00 -1.00 -1.00 -1.00
  virtual crystal weights 
   VCA    =   1.00  1.00  1.00  1.00  1.00
   NELECT =     400.0000    total number of electrons
   NUPDOWN=      -1.0000    fix difference up-down

 DOS related values:
   EMIN   =  10.00;   EMAX   =-10.00  energy-range for DOS
   EFERMI =   0.00
   ISMEAR =     0;   SIGMA  =   0.00  broadening in eV -4-tet -1-fermi 0-gaus

 Electronic relaxation 2 (details)
   IALGO  =     58    algorithm
   LDIAG  =      T    sub-space diagonalisation (order eigenvalues)
   LSUBROT=      F    optimize rotation matrix (better conditioning)
   TURBO    =      0    0=normal 1=particle mesh
   IRESTART =      0    0=no restart 2=restart with 2 vectors
   NREBOOT  =      0    no. of reboots
   NMIN     =      0    reboot dimension
   EREF     =   0.00    reference energy to select bands
   IMIX   =      4    mixing-type and parameters
     AMIX     =   0.40;   BMIX     =  1.00
     AMIX_MAG =   1.60;   BMIX_MAG =  1.00
     AMIN     =   0.10
     WC   =   100.;   INIMIX=   1;  MIXPRE=   1;  MAXMIX= -45

 Intra band minimization:
   WEIMIN = 0.0000     energy-eigenvalue tresh-hold
   EBREAK =  0.99E-11  absolut break condition
   DEPER  =   0.30     relativ break condition  

   TIME   =   0.40     timestep for ELM

  volume/ion in A,a.u.               =      20.80       140.38
  Fermi-wavevector in a.u.,A,eV,Ry     =   0.957863  1.810099 12.483376  0.917502
  Thomas-Fermi vector in A             =   2.086919
 
 Write flags
   LWAVE  =      F    write WAVECAR
   LCHARG =      F    write CHGCAR
   LVTOT  =      F    write LOCPOT, total local potential
   LVHAR  =      F    write LOCPOT, Hartree potential only
   LELF   =      F    write electronic localiz. function (ELF)
   LORBIT =      0    0 simple, 1 ext, 2 COOP (PROOUT)


 Dipole corrections
   LMONO  =      F    monopole corrections only (constant potential shift)
   LDIPOL =      F    correct potential (dipole corrections)
   IDIPOL =      0    1-x, 2-y, 3-z, 4-all directions 
   EPSILON=  1.0000000 bulk dielectric constant

 Core level calculations are selected ICORELEVEL =  1
 Exchange correlation treatment:
   GGA     =    --    GGA type
   LEXCH   =     8    internal setting for exchange type
   VOSKOWN=      0    Vosko Wilk Nusair interpolation
   EXXOEP  =     0    0=HF, 1=EXX-LHF (local Hartree Fock) 2=EXX OEP
   LHFCALC =     T    Hartree Fock is set to
   LSYMGRAD=     F    symmetrize gradient (conserves proper symmetry)
   PRECFOCK=fast      Normal, Fast or Accurate (Low or Medium for compatibility)
   LRHFCALC=     F    long range Hartree Fock
   LRSCOR  =     F    long range correlation only (use DFT for short range part)
   LTHOMAS =     F    Thomas Fermi screening in HF
   LMODELHF=     F    short range full HF, long range fraction AEXX
   ENCUT4O =  -1.0   cutoff for four orbital integrals eV
   LMAXFOCK=     4    L truncation for augmentation on plane wave grid
   LMAXFOCKAE=  -1    L truncation for all-electron charge restoration on plane wave grid
   NMAXFOCKAE=   1    number of basis functions for all-electron charge restoration
   LFOCKAEDFT=     F  apply the AE augmentation even for DFT
   NKREDX  =     1    reduce k-point grid by
   NKREDY  =     1    reduce k-point grid by
   NKREDZ  =     1    reduce k-point grid by
   SHIFTRED=     F    shift reduced grid of Gamma
   HFKIDENT=     F    idential grid for each k-point
   ODDONLY =     F    use only odd q-grid points
   EVENONLY=     F    use only even q-grid points
   HFALPHA =   -1.0000 decay constant for conv. correction
   MCALPHA =    0.0000 extent of test-charge in conv. correction in multipole expansion
   AEXX    =    0.2500 exact exchange contribution
   HFSCREEN=    0.2070 screening length (either q_TF or 0.3 A-1)
   HFSCREENC=   0.2070 screening length for correlation (either q_TF or 0.3 A-1)
   HFRCUT  =    0.0000 spherical cutoff for potential kernel
   ALDAX   =    0.7500 LDA exchange part
   AGGAX   =    0.7500 GGA exchange part
   ALDAC   =    1.0000 LDA correlation
   AGGAC   =    1.0000 GGA correlation
   NBANDSGWLOW=     1    first orbital included in HF term
   ENCUTFOCK=  -1.0 apply spherical cutoff to Coloumb kernel
 Linear response parameters
   LEPSILON=     F    determine dielectric tensor
   LRPA    =     F    only Hartree local field effects (RPA)
   LNABLA  =     F    use nabla operator in PAW spheres
   LVEL    =     F    velocity operator in full k-point grid
   LINTERFAST=   F  fast interpolation
   KINTER  =     0    interpolate to denser k-point grid
   CSHIFT  =0.1000    complex shift for real part using Kramers Kronig
   OMEGAMAX=  -1.0    maximum frequency
   DEG_THRESHOLD= 0.2000000E-02 threshold for treating states as degnerate
   RTIME   =    0.100 relaxation time in fs

 Orbital magnetization related:
   ORBITALMAG=     F  switch on orbital magnetization
   LCHIMAG   =     F  perturbation theory with respect to B field
   DQ        =  0.001000  dq finite difference perturbation B field



--------------------------------------------------------------------------------------------------------


 Static calculation
 charge density and potential will be updated during run
 non-spin polarized calculation
 Conjugate gradient for all bands (Freysoldt, et al. PRB 79, 241103 (2009))
 preconditioned conjugated gradient                                        
 perform sub-space diagonalisation
    before iterative eigenvector-optimisation
 modified Broyden-mixing scheme, WC =      100.0
 initial mixing is a Kerker type mixing with AMIX =  0.4000 and BMIX =      1.0000
 Hartree-type preconditioning will be used
 using additional bands           52
 reciprocal scheme for non local part
 use partial core corrections
 no Harris-corrections to forces 
 use gradient corrections 
 use of overlap-Matrix (Vanderbilt PP)
 Gauss-broadening in eV      SIGMA  =   0.00


--------------------------------------------------------------------------------------------------------


  energy-cutoff  :      700.00
  volume of cell :     1996.98
      direct lattice vectors                 reciprocal lattice vectors
    12.576837428  0.001915912  0.138198793     0.079520802 -0.000007684 -0.000869670
     0.001195632 12.457538083 -0.000746413    -0.000012224  0.080272684 -0.000000427
     0.139410704  0.000089045 12.747420625    -0.000862111  0.000004784  0.078456671

  length of vectors
    12.577596840 12.457538162 12.748182927     0.079525558  0.080272685  0.078461408


 
 k-points in units of 2pi/SCALE and weight: Automatic 3x3x3                         
   0.00000000  0.00000000  0.00000000       0.037
   0.02650693 -0.00000256 -0.00028989       0.074
  -0.00000407  0.02675756 -0.00000014       0.074
   0.02650286  0.02675500 -0.00029003       0.074
  -0.02651101  0.02676012  0.00028975       0.074
  -0.00028737  0.00000159  0.02615222       0.074
   0.02621956 -0.00000097  0.02586233       0.074
  -0.02679430  0.00000416  0.02644211       0.074
  -0.00029144  0.02675916  0.02615208       0.074
   0.02621549  0.02675659  0.02586219       0.074
  -0.02679838  0.02676172  0.02644197       0.074
  -0.00028330 -0.02675597  0.02615237       0.074
   0.02622364 -0.02675853  0.02586248       0.074
  -0.02679023 -0.02675341  0.02644226       0.074
 
 k-points in reciprocal lattice and weights: Automatic 3x3x3                         
   0.00000000  0.00000000  0.00000000       0.037
   0.33333333  0.00000000  0.00000000       0.074
   0.00000000  0.33333333  0.00000000       0.074
   0.33333333  0.33333333  0.00000000       0.074
  -0.33333333  0.33333333  0.00000000       0.074
   0.00000000  0.00000000  0.33333333       0.074
   0.33333333  0.00000000  0.33333333       0.074
  -0.33333333  0.00000000  0.33333333       0.074
   0.00000000  0.33333333  0.33333333       0.074
   0.33333333  0.33333333  0.33333333       0.074
  -0.33333333  0.33333333  0.33333333       0.074
   0.00000000 -0.33333333  0.33333333       0.074
   0.33333333 -0.33333333  0.33333333       0.074
  -0.33333333 -0.33333333  0.33333333       0.074
 
 position of ions in fractional coordinates (direct lattice) 
   0.19771997  0.24985111  0.22858729
   0.69626830  0.24996544  0.22924342
   0.19626830  0.74996544  0.22924342
   0.69771997  0.74985111  0.22858729
   0.19626830  0.24996544  0.72924342
   0.69771997  0.24985111  0.72858729
   0.19771997  0.74985111  0.72858729
   0.69626830  0.74996544  0.72924342
   0.31124839  0.24996692  0.26009769
   0.79782605  0.25004037  0.28767090
   0.29782605  0.75004037  0.28767090
   0.81124839  0.74996692  0.26009769
   0.29782605  0.25004037  0.78767090
   0.81124839  0.24996692  0.76009769
   0.31124839  0.74996692  0.76009769
   0.79782605  0.75004037  0.78767090
   0.19466400  0.24976421  0.14176889
   0.71548633  0.24987798  0.14400837
   0.21548633  0.74987798  0.14400837
   0.69466400  0.74976421  0.14176889
   0.21548633  0.24987798  0.64400837
   0.69466400  0.24976421  0.64176889
   0.19466400  0.74976421  0.64176889
   0.71548633  0.74987798  0.64400837
   0.15813486  0.32221276  0.26025196
   0.65054076  0.32249161  0.25077868
   0.15054076  0.82249161  0.25077868
   0.65813486  0.82221276  0.26025196
   0.15054076  0.32249161  0.75077868
   0.65813486  0.32221276  0.76025196
   0.15813486  0.82221276  0.76025196
   0.65054076  0.82249161  0.75077868
   0.15828808  0.17748188  0.26037588
   0.65059759  0.17747027  0.25092553
   0.15059759  0.67747027  0.25092553
   0.65828808  0.67748188  0.26037588
   0.15059759  0.17747027  0.75092553
   0.65828808  0.17748188  0.76037588
   0.15828808  0.67748188  0.76037588
   0.65059759  0.67747027  0.75092553
   0.35218909  0.31776597  0.23193604
   0.84408007  0.31798259  0.26957694
   0.34408007  0.81798259  0.26957694
   0.85218909  0.81776597  0.23193604
   0.34408007  0.31798259  0.76957694
   0.85218909  0.31776597  0.73193604
   0.35218909  0.81776597  0.73193604
   0.84408007  0.81798259  0.76957694
   0.35231723  0.18218001  0.23202005
   0.84409337  0.18202976  0.26976175
   0.34409337  0.68202976  0.26976175
   0.85231723  0.68218001  0.23202005
   0.34409337  0.18202976  0.76976175
   0.85231723  0.18218001  0.73202005
   0.35231723  0.68218001  0.73202005
   0.84409337  0.68202976  0.76976175
   0.32133032  0.25001792  0.34224210
   0.78500982  0.25016913  0.36897638
   0.28500982  0.75016913  0.36897638
   0.82133032  0.75001792  0.34224210
   0.28500982  0.25016913  0.86897638
   0.82133032  0.25001792  0.84224210
   0.32133032  0.75001792  0.84224210
   0.78500982  0.75016913  0.86897638
   0.47243829  0.49819638  0.48880668
   0.97244526  0.50178321  0.48881622
   0.47244526  0.00178321  0.48881622
   0.97243829  0.99819638  0.48880668
   0.47244526  0.50178321  0.98881622
   0.97243829  0.49819638  0.98880668
   0.47243829  0.99819638  0.98880668
   0.97244526  0.00178321  0.98881622
   0.45470180  0.50370353  0.23757486
   0.95478555  0.49627857  0.23757062
   0.45478555  0.99627857  0.23757062
   0.95470180  0.00370353  0.23757486
   0.45478555  0.49627857  0.73757062
   0.95470180  0.50370353  0.73757486
   0.45470180  0.00370353  0.73757486
   0.95478555  0.99627857  0.73757062
   0.47716186  0.24997240  0.01060245
   0.92210902  0.24998562  0.01306199
   0.42210902  0.74998562  0.01306199
   0.97716186  0.74997240  0.01060245
   0.42210902  0.24998562  0.51306199
   0.97716186  0.24997240  0.51060245
   0.47716186  0.74997240  0.51060245
   0.92210902  0.74998562  0.51306199
   0.21616462  0.53157316  0.46127267
   0.71617826  0.46842171  0.46120674
   0.21617826  0.96842171  0.46120674
   0.71616462  0.03157316  0.46127267
   0.21617826  0.46842171  0.96120674
   0.71616462  0.53157316  0.96127267
   0.21616462  0.03157316  0.96127267
   0.71617826  0.96842171  0.96120674
 
 position of ions in cartesian coordinates  (Angst):
   2.51885811  3.11292883  2.94103644
   8.78911105  3.11530845  3.01829920
   2.50129016  9.34311953  2.94882660
   8.80787464  9.34265583  3.00976263
   2.57039769  3.11439501  9.32291012
   8.87698218  3.11393131  9.38384615
   2.58916128  9.34174240  9.31437355
   8.85941422  9.34412201  9.39163631
   3.95107964  3.11459185  3.35840224
  10.07453189  3.11644156  3.77713395
   3.78671099  9.34425264  3.70766135
  10.24009617  9.34431885  3.42712843
   3.85581853  3.11552812 10.08174487
  10.30920371  3.11559433  9.80121195
   4.02138281  9.34340542  9.73173935
  10.14483506  9.34525512 10.15047106
   2.46832021  3.11183279  1.83390353
   9.01893038  3.11424806  1.93442805
   2.73110948  9.34205915  1.86495544
   8.75733674  9.34155979  1.90262972
   2.80021701  3.11333463  8.23903896
   8.82644428  3.11283527  8.27671323
   2.53862338  9.34064636  8.20724063
   9.08923354  9.34306163  8.30776515
   2.02550352  4.01430387  3.33915475
   8.21709217  4.01872027  3.28644453
   1.92927127 10.24653135  3.21697193
   8.31452005 10.24403087  3.40788094
   1.99837881  4.01780683  9.59105545
   8.38362759  4.01530635  9.78196446
   2.09580669 10.24311743  9.71249186
   8.28739534 10.24753383  9.65978164
   2.02727478  2.21131372  3.34086363
   8.21765404  2.21211145  3.28843263
   1.92983314  8.43992253  3.21896003
   8.31629131  8.44104072  3.40958982
   1.99894068  2.21119801  9.59304355
   8.38539884  2.21231620  9.78367334
   2.09757794  8.44012729  9.71420074
   8.28795721  8.44092501  9.66176974
   4.46213921  3.95927712  3.00502119
  10.65381987  3.96292145  3.55282417
   4.36599897 10.19073253  3.48335156
  10.75115574 10.18900412  3.07374738
   4.43510650  3.96200802  9.85743508
  10.82026328  3.96027960  9.44783089
   4.53244238 10.18809069  9.37835829
  10.72412303 10.19173501  9.92616127
   4.46360046  2.27021011  3.00621096
  10.65385037  2.26928392  3.55528335
   4.36602947  8.49709501  3.48581075
  10.75261699  8.49993711  3.07493715
   4.43513701  2.26837049  9.85989427
  10.82172453  2.27121259  9.44902067
   4.53390363  8.49902368  9.37954807
  10.72415354  8.49809749  9.92862046
   4.08933037  3.11525381  4.40692491
   9.92467929  3.11802831  4.81179785
   3.63685840  9.34583939  4.74232525
  10.37834690  9.34498081  4.47565110
   3.70596593  3.11711488 11.11640877
  10.44745444  3.11625629 10.84973462
   4.15963354  9.34406738 10.78026202
   9.99498246  9.34684187 11.18513496
   6.01052015  6.20724902  6.29594286
  12.29903209  6.25289013  6.36516215
   6.01001556  0.02316313  6.29643596
  12.29953668 12.43697601  6.36466905
   6.08031873  6.25197669 12.66977307
  12.36864422  6.20825150 12.73875257
   6.08082332 12.43606258 12.66927996
  12.36813962  0.02416561 12.73924567
   5.75243337  6.27579817  3.09092999
  12.04189585  6.18425967  3.15999241
   5.75407495 12.41207076  3.09051980
  12.04025427  0.04798709  3.16040259
   5.82318249  6.18334624  9.46460332
  12.11055744  6.27680065  9.53373970
   5.82154091  0.04707365  9.46501351
  12.11219902 12.41307323  9.53332951
   6.00296414  3.11495582  0.20091048
  11.59933506  3.11597326  0.29375440
   5.31151417  9.34378434  0.22428180
  12.29198067  9.34468281  0.26963667
   5.38062170  3.11505982  6.59836532
  12.36108821  3.11595830  6.64372019
   6.07326731  9.34376938  6.57424759
  11.66963823  9.34478682  6.66709151
   2.78360916  6.62254814  5.90951364
   9.07211476  5.83679450  5.97782159
   2.78429386 12.06460559  5.90834899
   9.07143005  0.39473705  5.97898624
   2.85340140  5.83588107 12.28243251
   9.14173322  6.62355061 12.35232335
   2.85271669  0.39382362 12.28359716
   9.14241793 12.06560807 12.35115870
 


--------------------------------------------------------------------------------------------------------


 k-point  1 :   0.0000 0.0000 0.0000  plane waves:   84007
 k-point  2 :   0.3333 0.0000 0.0000  plane waves:   84003
 k-point  3 :   0.0000 0.3333 0.0000  plane waves:   83995
 k-point  4 :   0.3333 0.3333 0.0000  plane waves:   84018
 k-point  5 :  -0.3333 0.3333 0.0000  plane waves:   84019
 k-point  6 :   0.0000 0.0000 0.3333  plane waves:   83960
 k-point  7 :   0.3333 0.0000 0.3333  plane waves:   83937
 k-point  8 :  -0.3333 0.0000 0.3333  plane waves:   83982
 k-point  9 :   0.0000 0.3333 0.3333  plane waves:   83984
 k-point 10 :   0.3333 0.3333 0.3333  plane waves:   84012
 k-point 11 :  -0.3333 0.3333 0.3333  plane waves:   83970
 k-point 12 :   0.0000-0.3333 0.3333  plane waves:   83977
 k-point 13 :   0.3333-0.3333 0.3333  plane waves:   84013
 k-point 14 :  -0.3333-0.3333 0.3333  plane waves:   83973

 maximum and minimum number of plane-waves per node :      3556     3433

 maximum number of plane-waves:     84019
 maximum index in each direction: 
   IXMAX=   27   IYMAX=   27   IZMAX=   27
   IXMIN=  -27   IYMIN=  -27   IZMIN=  -27

 NGX is ok and might be reduce to 110
 WARNING: aliasing errors must be expected set NGY to 110 to avoid them
 NGZ is ok and might be reduce to 110
 aliasing errors are usually negligible using standard VASP settings
 and one can safely disregard these warnings

 parallel 3D FFT for wavefunctions:
    minimum data exchange during FFTs selected (reduces bandwidth)
 parallel 3D FFT for charge:
    minimum data exchange during FFTs selected (reduces bandwidth)


 FFT grid for exact exchange (Hartree Fock) 
  NGX = 56; NGY = 56; NGZ = 60

 
 Radii for the augmentation spheres in the non-local exchange
 for species   1 augmentation radius   0.944 (default was   0.699)
       energy cutoff for augmentation   2800.0
 for species   2 augmentation radius   0.957 (default was   0.709)
       energy cutoff for augmentation   2800.0
 for species   3 augmentation radius   0.702 (default was   0.520)
       energy cutoff for augmentation   2800.0
 for species   4 augmentation radius   1.558 (default was   1.154)
       energy cutoff for augmentation   2800.0
 for species   5 augmentation radius   1.603 (default was   1.188)
       energy cutoff for augmentation   2800.0

 real space projection operators:
  total allocation   :      10781.03 KBytes
  max/ min on nodes  :        904.98        174.47

 Maximum index for augmentation-charges in exchange          233
  SETUP_FOCK is finished

 total amount of memory used by VASP on root node   270994. kBytes
========================================================================

   base      :      30000. kBytes
   nonl-proj :      43211. kBytes
   fftplans  :      20236. kBytes
   grid      :      14122. kBytes
   one-center:         62. kBytes
   HF        :        194. kBytes
   nonlr-proj:       3818. kBytes
   wavefun   :     159351. kBytes
 
     INWAV:  cpu time    0.0000: real time    0.0004
 Broyden mixing: mesh for mixing (old mesh)
   NGX = 55   NGY = 53   NGZ = 55
  (NGX  =224   NGY  =216   NGZ  =224)
  gives a total of 160325 points

 initial charge density was supplied:
 charge density of overlapping atoms calculated
 number of electron     400.0000000 magnetization 
 keeping initial charge density in first step


--------------------------------------------------------------------------------------------------------


 Maximum index for augmentation-charges         5399 (set IRDMAX)


--------------------------------------------------------------------------------------------------------


 First call to EWALD:  gamma=   0.141
 Maximum number of real-space cells 3x 3x 3
 Maximum number of reciprocal cells 3x 3x 3

 FEWALD executed in parallel
    FEWALD:  cpu time    0.0320: real time    0.0340


----------------------------------------- Iteration    1(   1)  ---------------------------------------


    POTLOK:  cpu time    0.8121: real time    0.8158
    SETDIJ:  cpu time    0.6160: real time    0.6172
    TRIAL :  cpu time    6.3964: real time    6.4232
    CORREC:  cpu time    0.0000: real time    0.0018
    --------------------------------------------
      LOOP:  cpu time    7.8805: real time    7.9156

 eigenvalue-minimisations  : 11436
 total energy-change (2. order) : 0.3930138E+05  (-0.1086255E+06)
 number of electron     400.0000000 magnetization 
 augmentation part      400.0000000 magnetization 

 Free energy of the ion-electron system (eV)
  ---------------------------------------------------
  alpha Z        PSCENC =       370.05370877
  Ewald energy   TEWEN  =    -15558.20605741
  -Hartree energ DENC   =     -8099.27625045
  -exchange      EXHF   =         0.00000000
  -V(xc)+E(xc)   XCENC  =       254.28252198
  PAW double counting   =     20708.16285016   -20051.16877172
  entropy T*S    EENTRO =        -0.00004179
  eigenvalues    EBANDS =     36997.10418521
  atomic energy  EATOM  =     24680.42500679
  ---------------------------------------------------
  free energy    TOTEN  =     39301.37715153 eV

  energy without entropy =    39301.37719332  energy(sigma->0) =    39301.37717243
  exchange ACFDT corr.  =         0.00000000  see jH, gK, PRB 81, 115126


--------------------------------------------------------------------------------------------------------




----------------------------------------- Iteration    1(   2)  ---------------------------------------


    TRIAL :  cpu time    5.1083: real time    5.1190
    CORREC:  cpu time    0.0000: real time    0.0018
    --------------------------------------------
      LOOP:  cpu time    5.1123: real time    5.1357

 eigenvalue-minimisations  :  8432
 total energy-change (2. order) :-0.2965595E+05  (-0.2904509E+05)
 number of electron     400.0000000 magnetization 
 augmentation part      400.0000000 magnetization 

 Free energy of the ion-electron system (eV)
  ---------------------------------------------------
  alpha Z        PSCENC =       370.05370877
  Ewald energy   TEWEN  =    -15558.20605741
  -Hartree energ DENC   =     -8099.27625045
  -exchange      EXHF   =         0.00000000
  -V(xc)+E(xc)   XCENC  =       254.28252198
  PAW double counting   =     20708.16285016   -20051.16877172
  entropy T*S    EENTRO =        -0.00000000
  eigenvalues    EBANDS =      7341.14961562
  atomic energy  EATOM  =     24680.42500679
  ---------------------------------------------------
  free energy    TOTEN  =      9645.42262373 eV

  energy without entropy =     9645.42262373  energy(sigma->0) =     9645.42262373
  exchange ACFDT corr.  =         0.00000000  see jH, gK, PRB 81, 115126


--------------------------------------------------------------------------------------------------------




----------------------------------------- Iteration    1(   3)  ---------------------------------------


    TRIAL :  cpu time    5.2603: real time    5.2729
    CORREC:  cpu time    0.0000: real time    0.0022
    --------------------------------------------
      LOOP:  cpu time    5.2643: real time    5.2840

 eigenvalue-minimisations  :  8772
 total energy-change (2. order) :-0.7491345E+04  (-0.7308470E+04)
 number of electron     400.0000000 magnetization 
 augmentation part      400.0000000 magnetization 

 Free energy of the ion-electron system (eV)
  ---------------------------------------------------
  alpha Z        PSCENC =       370.05370877
  Ewald energy   TEWEN  =    -15558.20605741
  -Hartree energ DENC   =     -8099.27625045
  -exchange      EXHF   =         0.00000000
  -V(xc)+E(xc)   XCENC  =       254.28252198
  PAW double counting   =     20708.16285016   -20051.16877172
  entropy T*S    EENTRO =        -0.00004179
  eigenvalues    EBANDS =      -150.19509071
  atomic energy  EATOM  =     24680.42500679
  ---------------------------------------------------
  free energy    TOTEN  =      2154.07787561 eV

  energy without entropy =     2154.07791741  energy(sigma->0) =     2154.07789651
  exchange ACFDT corr.  =         0.00000000  see jH, gK, PRB 81, 115126


--------------------------------------------------------------------------------------------------------




----------------------------------------- Iteration    1(   4)  ---------------------------------------


    TRIAL :  cpu time    5.8244: real time    5.8413
    CORREC:  cpu time    0.0040: real time    0.0013
    --------------------------------------------
      LOOP:  cpu time    5.8324: real time    5.8480

 eigenvalue-minimisations  : 10100
 total energy-change (2. order) :-0.1659064E+04  (-0.1585408E+04)
 number of electron     400.0000000 magnetization 
 augmentation part      400.0000000 magnetization 

 Free energy of the ion-electron system (eV)
  ---------------------------------------------------
  alpha Z        PSCENC =       370.05370877
  Ewald energy   TEWEN  =    -15558.20605741
  -Hartree energ DENC   =     -8099.27625045
  -exchange      EXHF   =         0.00000000
  -V(xc)+E(xc)   XCENC  =       254.28252198
  PAW double counting   =     20708.16285016   -20051.16877172
  entropy T*S    EENTRO =         0.00000000
  eigenvalues    EBANDS =     -1809.25906062
  atomic energy  EATOM  =     24680.42500679
  ---------------------------------------------------
  free energy    TOTEN  =       495.01394750 eV

  energy without entropy =      495.01394750  energy(sigma->0) =      495.01394750
  exchange ACFDT corr.  =         0.00000000  see jH, gK, PRB 81, 115126


--------------------------------------------------------------------------------------------------------




----------------------------------------- Iteration    1(   5)  ---------------------------------------


    TRIAL :  cpu time    5.6124: real time    5.6239
    CORREC:  cpu time    0.0000: real time    0.0011
    CHARGE:  cpu time    1.0361: real time    1.0401
    --------------------------------------------
      LOOP:  cpu time    6.6484: real time    6.6745

 eigenvalue-minimisations  :  9576
 total energy-change (2. order) :-0.2187731E+03  (-0.2149400E+03)
 number of electron     400.0000000 magnetization 
 augmentation part       13.4360122 magnetization 

 Free energy of the ion-electron system (eV)
  ---------------------------------------------------
  alpha Z        PSCENC =       370.05370877
  Ewald energy   TEWEN  =    -15558.20605741
  -Hartree energ DENC   =     -8099.27625045
  -exchange      EXHF   =         0.00000000
  -V(xc)+E(xc)   XCENC  =       254.28252198
  PAW double counting   =     20708.16285016   -20051.16877172
  entropy T*S    EENTRO =         0.00000000
  eigenvalues    EBANDS =     -2028.03218374
  atomic energy  EATOM  =     24680.42500679
  ---------------------------------------------------
  free energy    TOTEN  =       276.24082438 eV

  energy without entropy =      276.24082438  energy(sigma->0) =      276.24082438
  exchange ACFDT corr.  =         0.00000000  see jH, gK, PRB 81, 115126


--------------------------------------------------------------------------------------------------------




----------------------------------------- Iteration    1(   6)  ---------------------------------------


    POTLOK:  cpu time    0.8121: real time    0.8158
    SETDIJ:  cpu time    0.6240: real time    0.6237
    TRIAL :  cpu time  694.7154: real time  696.2116
    CORREC:  cpu time  695.4635: real time  696.9381
    CHARGE:  cpu time    1.0401: real time    1.0408
    --------------------------------------------
      LOOP:  cpu time 1392.6590: real time 1395.6360

 eigenvalue-minimisations  :     0
 total energy-change (2. order) :-0.7209673E+03  (-0.2150989E+02)
 number of electron     400.0000000 magnetization 
 augmentation part       13.6476316 magnetization 

 Free energy of the ion-electron system (eV)
  ---------------------------------------------------
  alpha Z        PSCENC =       370.05370877
  Ewald energy   TEWEN  =    -15558.20605741
  -Hartree energ DENC   =     -8145.46127419
  -exchange      EXHF   =       751.39805465
  -V(xc)+E(xc)   XCENC  =       272.68433765
  PAW double counting   =     58155.56800517   -57485.84747944
  entropy T*S    EENTRO =        -0.00000000
  eigenvalues    EBANDS =     -3485.34078356
  atomic energy  EATOM  =     24680.42500679
  ---------------------------------------------------
  free energy    TOTEN  =      -444.72648158 eV

  energy without entropy =     -444.72648158  energy(sigma->0) =     -444.72648158
  exchange ACFDT corr.  =         0.00000000  see jH, gK, PRB 81, 115126


--------------------------------------------------------------------------------------------------------




----------------------------------------- Iteration    1(   7)  ---------------------------------------


    POTLOK:  cpu time    0.8241: real time    0.8244
    SETDIJ:  cpu time    0.6160: real time    0.6159
    TRIAL :  cpu time  690.3351: real time  691.8267
    CORREC:  cpu time  695.9915: real time  697.4682
    CHARGE:  cpu time    1.0441: real time    1.0437
    --------------------------------------------
      LOOP:  cpu time 1388.8108: real time 1391.7872

 eigenvalue-minimisations  :     0
 total energy-change (2. order) :-0.2144125E+02  (-0.8627675E+01)
 number of electron     400.0000000 magnetization 
 augmentation part        9.9030466 magnetization 

 Free energy of the ion-electron system (eV)
  ---------------------------------------------------
  alpha Z        PSCENC =       370.05370877
  Ewald energy   TEWEN  =    -15558.20605741
  -Hartree energ DENC   =     -8443.01139321
  -exchange      EXHF   =       761.97964278
  -V(xc)+E(xc)   XCENC  =       279.96266884
  PAW double counting   =     50988.18292042   -50315.82838097
  entropy T*S    EENTRO =         0.00000000
  eigenvalues    EBANDS =     -3229.72584614
  atomic energy  EATOM  =     24680.42500679
  ---------------------------------------------------
  free energy    TOTEN  =      -466.16773013 eV

  energy without entropy =     -466.16773013  energy(sigma->0) =     -466.16773013
  exchange ACFDT corr.  =         0.00000000  see jH, gK, PRB 81, 115126


--------------------------------------------------------------------------------------------------------




----------------------------------------- Iteration    1(   8)  ---------------------------------------


    POTLOK:  cpu time    0.8161: real time    0.8193
    SETDIJ:  cpu time    0.6120: real time    0.6121
    TRIAL :  cpu time  690.6232: real time  692.1276
    CORREC:  cpu time  691.8752: real time  693.3406
    CHARGE:  cpu time    1.0441: real time    1.0470
    --------------------------------------------
      LOOP:  cpu time 1384.9706: real time 1387.9667

 eigenvalue-minimisations  :     0
 total energy-change (2. order) :-0.8627252E+01  (-0.3062962E+01)
 number of electron     400.0000000 magnetization 
 augmentation part        9.5316736 magnetization 

 Free energy of the ion-electron system (eV)
  ---------------------------------------------------
  alpha Z        PSCENC =       370.05370877
  Ewald energy   TEWEN  =    -15558.20605741
  -Hartree energ DENC   =     -8363.74542894
  -exchange      EXHF   =       765.34696419
  -V(xc)+E(xc)   XCENC  =       278.02601125
  PAW double counting   =     44163.90690788   -43499.87912597
  entropy T*S    EENTRO =        -0.00000000
  eigenvalues    EBANDS =     -3310.72296902
  atomic energy  EATOM  =     24680.42500679
  ---------------------------------------------------
  free energy    TOTEN  =      -474.79498245 eV

  energy without entropy =     -474.79498245  energy(sigma->0) =     -474.79498245
  exchange ACFDT corr.  =         0.00000000  see jH, gK, PRB 81, 115126


--------------------------------------------------------------------------------------------------------




----------------------------------------- Iteration    1(   9)  ---------------------------------------


    POTLOK:  cpu time    0.8161: real time    0.8190
    SETDIJ:  cpu time    0.6160: real time    0.6158
    TRIAL :  cpu time  691.1432: real time  692.6156
    CORREC:  cpu time  694.7114: real time  696.1847
    CHARGE:  cpu time    1.0401: real time    1.0410
    --------------------------------------------
      LOOP:  cpu time 1388.3308: real time 1391.2980

 eigenvalue-minimisations  :     0
 total energy-change (2. order) :-0.3063030E+01  (-0.9393749E+00)
 number of electron     400.0000000 magnetization 
 augmentation part        9.6233280 magnetization 

 Free energy of the ion-electron system (eV)
  ---------------------------------------------------
  alpha Z        PSCENC =       370.05370877
  Ewald energy   TEWEN  =    -15558.20605741
  -Hartree energ DENC   =     -8409.71114672
  -exchange      EXHF   =       768.37621722
  -V(xc)+E(xc)   XCENC  =       279.43629821
  PAW double counting   =     38457.21478246   -37794.49970474
  entropy T*S    EENTRO =         0.00000000
  eigenvalues    EBANDS =     -3270.94711753
  atomic energy  EATOM  =     24680.42500679
  ---------------------------------------------------
  free energy    TOTEN  =      -477.85801295 eV

  energy without entropy =     -477.85801295  energy(sigma->0) =     -477.85801295
  exchange ACFDT corr.  =         0.00000000  see jH, gK, PRB 81, 115126


--------------------------------------------------------------------------------------------------------




----------------------------------------- Iteration    1(  10)  ---------------------------------------


    POTLOK:  cpu time    0.8201: real time    0.8184
    SETDIJ:  cpu time    0.5960: real time    0.5986
    TRIAL :  cpu time  691.5752: real time  693.0707
    CORREC:  cpu time  694.8794: real time  696.3499
    CHARGE:  cpu time    1.0401: real time    1.0419
    --------------------------------------------
      LOOP:  cpu time 1388.9108: real time 1391.9125

 eigenvalue-minimisations  :     0
 total energy-change (2. order) :-0.9384296E+00  (-0.2460208E+00)
 number of electron     400.0000000 magnetization 
 augmentation part        9.2416386 magnetization 

 Free energy of the ion-electron system (eV)
  ---------------------------------------------------
  alpha Z        PSCENC =       370.05370877
  Ewald energy   TEWEN  =    -15558.20605741
  -Hartree energ DENC   =     -8414.88048479
  -exchange      EXHF   =       767.86669149
  -V(xc)+E(xc)   XCENC  =       278.77954603
  PAW double counting   =     35801.08547730   -35136.98371239
  entropy T*S    EENTRO =         0.00000000
  eigenvalues    EBANDS =     -3266.93661839
  atomic energy  EATOM  =     24680.42500679
  ---------------------------------------------------
  free energy    TOTEN  =      -478.79644260 eV

  energy without entropy =     -478.79644260  energy(sigma->0) =     -478.79644260
  exchange ACFDT corr.  =         0.00000000  see jH, gK, PRB 81, 115126


--------------------------------------------------------------------------------------------------------




----------------------------------------- Iteration    1(  11)  ---------------------------------------


    POTLOK:  cpu time    0.8121: real time    0.8173
    SETDIJ:  cpu time    0.6120: real time    0.6134
    TRIAL :  cpu time  692.4153: real time  693.9095
    CORREC:  cpu time  692.6273: real time  694.0929
    CHARGE:  cpu time    1.0441: real time    1.0444
    --------------------------------------------
      LOOP:  cpu time 1387.5147: real time 1390.5000

 eigenvalue-minimisations  :     0
 total energy-change (2. order) :-0.2460006E+00  (-0.1278674E+00)
 number of electron     400.0000000 magnetization 
 augmentation part        9.3364649 magnetization 

 Free energy of the ion-electron system (eV)
  ---------------------------------------------------
  alpha Z        PSCENC =       370.05370877
  Ewald energy   TEWEN  =    -15558.20605741
  -Hartree energ DENC   =     -8384.99458440
  -exchange      EXHF   =       767.22659403
  -V(xc)+E(xc)   XCENC  =       277.76071096
  PAW double counting   =     35112.34154683   -34448.57353700
  entropy T*S    EENTRO =        -0.00000000
  eigenvalues    EBANDS =     -3295.07583177
  atomic energy  EATOM  =     24680.42500679
  ---------------------------------------------------
  free energy    TOTEN  =      -479.04244319 eV

  energy without entropy =     -479.04244319  energy(sigma->0) =     -479.04244319
  exchange ACFDT corr.  =         0.00000000  see jH, gK, PRB 81, 115126


--------------------------------------------------------------------------------------------------------




----------------------------------------- Iteration    1(  12)  ---------------------------------------


    POTLOK:  cpu time    0.8241: real time    0.8231
    SETDIJ:  cpu time    0.6120: real time    0.6165
    TRIAL :  cpu time  690.8912: real time  692.3802
    CORREC:  cpu time  692.6433: real time  694.1128
    CHARGE:  cpu time    1.0481: real time    1.0477
    --------------------------------------------
      LOOP:  cpu time 1386.0186: real time 1388.9951

 eigenvalue-minimisations  :     0
 total energy-change (2. order) :-0.1277243E+00  (-0.3959703E-01)
 number of electron     400.0000000 magnetization 
 augmentation part        9.3541890 magnetization 

 Free energy of the ion-electron system (eV)
  ---------------------------------------------------
  alpha Z        PSCENC =       370.05370877
  Ewald energy   TEWEN  =    -15558.20605741
  -Hartree energ DENC   =     -8403.26204239
  -exchange      EXHF   =       767.77987603
  -V(xc)+E(xc)   XCENC  =       278.22490806
  PAW double counting   =     34942.21719581   -34277.93496672
  entropy T*S    EENTRO =        -0.00000000
  eigenvalues    EBANDS =     -3278.46779639
  atomic energy  EATOM  =     24680.42500679
  ---------------------------------------------------
  free energy    TOTEN  =      -479.17016744 eV

  energy without entropy =     -479.17016744  energy(sigma->0) =     -479.17016744
  exchange ACFDT corr.  =         0.00000000  see jH, gK, PRB 81, 115126


--------------------------------------------------------------------------------------------------------




----------------------------------------- Iteration    1(  13)  ---------------------------------------


    POTLOK:  cpu time    0.8161: real time    0.8175
    SETDIJ:  cpu time    0.5520: real time    0.5508
    TRIAL :  cpu time  693.1193: real time  694.6271
    CORREC:  cpu time  693.5433: real time  695.0121
    CHARGE:  cpu time    1.0361: real time    1.0410
    --------------------------------------------
      LOOP:  cpu time 1389.0708: real time 1392.1310

 eigenvalue-minimisations  :     0
 total energy-change (2. order) :-0.3952504E-01  (-0.1098365E-01)
 number of electron     400.0000000 magnetization 
 augmentation part        9.3200561 magnetization 

 Free energy of the ion-electron system (eV)
  ---------------------------------------------------
  alpha Z        PSCENC =       370.05370877
  Ewald energy   TEWEN  =    -15558.20605741
  -Hartree energ DENC   =     -8404.08333770
  -exchange      EXHF   =       767.88696055
  -V(xc)+E(xc)   XCENC  =       278.30367669
  PAW double counting   =     35124.86383591   -34460.56989493
  entropy T*S    EENTRO =         0.00000000
  eigenvalues    EBANDS =     -3277.88359115
  atomic energy  EATOM  =     24680.42500679
  ---------------------------------------------------
  free energy    TOTEN  =      -479.20969248 eV

  energy without entropy =     -479.20969248  energy(sigma->0) =     -479.20969248
  exchange ACFDT corr.  =         0.00000000  see jH, gK, PRB 81, 115126


--------------------------------------------------------------------------------------------------------




----------------------------------------- Iteration    1(  14)  ---------------------------------------


    POTLOK:  cpu time    0.8161: real time    0.8180
    SETDIJ:  cpu time    0.6160: real time    0.6189
    TRIAL :  cpu time  693.6433: real time  695.1372
    CORREC:  cpu time  692.8593: real time  694.3245
    CHARGE:  cpu time    1.0361: real time    1.0408
    --------------------------------------------
      LOOP:  cpu time 1388.9748: real time 1391.9587

 eigenvalue-minimisations  :     0
 total energy-change (2. order) :-0.1098379E-01  (-0.3445287E-02)
 number of electron     400.0000000 magnetization 
 augmentation part        9.3548903 magnetization 

 Free energy of the ion-electron system (eV)
  ---------------------------------------------------
  alpha Z        PSCENC =       370.05370877
  Ewald energy   TEWEN  =    -15558.20605741
  -Hartree energ DENC   =     -8400.42250872
  -exchange      EXHF   =       767.80400151
  -V(xc)+E(xc)   XCENC  =       278.20833618
  PAW double counting   =     35312.09458369   -34647.90736192
  entropy T*S    EENTRO =         0.00000000
  eigenvalues    EBANDS =     -3281.27038515
  atomic energy  EATOM  =     24680.42500679
  ---------------------------------------------------
  free energy    TOTEN  =      -479.22067626 eV

  energy without entropy =     -479.22067626  energy(sigma->0) =     -479.22067626
  exchange ACFDT corr.  =         0.00000000  see jH, gK, PRB 81, 115126


--------------------------------------------------------------------------------------------------------




----------------------------------------- Iteration    1(  15)  ---------------------------------------


    POTLOK:  cpu time    0.8201: real time    0.8229
    SETDIJ:  cpu time    0.6240: real time    0.6264
    TRIAL :  cpu time  690.9952: real time  692.5832
    CORREC:  cpu time  693.0633: real time  694.5307
    CHARGE:  cpu time    1.0401: real time    1.0433
    --------------------------------------------
      LOOP:  cpu time 1386.5467: real time 1389.6141

 eigenvalue-minimisations  :     0
 total energy-change (2. order) :-0.3447916E-02  (-0.1811075E-02)
 number of electron     400.0000000 magnetization 
 augmentation part        9.3353929 magnetization 

 Free energy of the ion-electron system (eV)
  ---------------------------------------------------
  alpha Z        PSCENC =       370.05370877
  Ewald energy   TEWEN  =    -15558.20605741
  -Hartree energ DENC   =     -8403.81821110
  -exchange      EXHF   =       767.85811181
[...]


 FORCES acting on ions:
    Electron-Ion                     Ewald-Force                    Non-Local-Force
 -----------------------------------------------------------------------------------------------
   0.883E+02 0.420E-01 0.222E+02   -.957E+02 -.523E-01 -.246E+02   0.703E+01 0.893E-02 0.212E+01
   0.798E+02 0.704E-01 0.502E+02   -.864E+02 -.778E-01 -.545E+02   0.630E+01 0.623E-02 0.392E+01
   0.798E+02 0.704E-01 0.502E+02   -.864E+02 -.778E-01 -.545E+02   0.630E+01 0.623E-02 0.392E+01
   0.883E+02 0.420E-01 0.222E+02   -.957E+02 -.523E-01 -.246E+02   0.703E+01 0.893E-02 0.212E+01
   0.798E+02 0.704E-01 0.502E+02   -.864E+02 -.778E-01 -.545E+02   0.630E+01 0.623E-02 0.392E+01
   0.883E+02 0.420E-01 0.222E+02   -.957E+02 -.523E-01 -.246E+02   0.703E+01 0.893E-02 0.212E+01
   0.883E+02 0.420E-01 0.222E+02   -.957E+02 -.523E-01 -.246E+02   0.703E+01 0.893E-02 0.212E+01
   0.798E+02 0.704E-01 0.502E+02   -.864E+02 -.778E-01 -.545E+02   0.630E+01 0.623E-02 0.392E+01
   -.360E+02 -.142E+00 -.157E+02   0.347E+02 0.139E+00 0.159E+02   0.161E+01 0.162E-02 0.451E-01
   -.388E+02 -.335E-01 -.169E+02   0.378E+02 0.291E-01 0.162E+02   0.129E+01 0.351E-02 0.873E+00
   -.388E+02 -.335E-01 -.169E+02   0.378E+02 0.291E-01 0.162E+02   0.129E+01 0.351E-02 0.873E+00
   -.360E+02 -.142E+00 -.157E+02   0.347E+02 0.139E+00 0.159E+02   0.161E+01 0.162E-02 0.451E-01
   -.388E+02 -.335E-01 -.169E+02   0.378E+02 0.291E-01 0.162E+02   0.129E+01 0.351E-02 0.873E+00
   -.360E+02 -.142E+00 -.157E+02   0.347E+02 0.139E+00 0.159E+02   0.161E+01 0.162E-02 0.451E-01
   -.360E+02 -.142E+00 -.157E+02   0.347E+02 0.139E+00 0.159E+02   0.161E+01 0.162E-02 0.451E-01
   -.388E+02 -.335E-01 -.169E+02   0.378E+02 0.291E-01 0.162E+02   0.129E+01 0.351E-02 0.873E+00
   0.116E+02 0.373E-01 0.494E+02   -.120E+02 -.427E-01 -.545E+02   0.399E+00 0.572E-02 0.551E+01
   -.160E+00 0.539E-01 0.523E+02   0.108E+01 -.590E-01 -.573E+02   -.101E+01 0.531E-02 0.544E+01
   -.160E+00 0.539E-01 0.523E+02   0.108E+01 -.590E-01 -.573E+02   -.101E+01 0.531E-02 0.544E+01
   0.116E+02 0.373E-01 0.494E+02   -.120E+02 -.427E-01 -.545E+02   0.399E+00 0.572E-02 0.551E+01
   -.160E+00 0.539E-01 0.523E+02   0.108E+01 -.590E-01 -.573E+02   -.101E+01 0.531E-02 0.544E+01
   0.116E+02 0.373E-01 0.494E+02   -.120E+02 -.427E-01 -.545E+02   0.399E+00 0.572E-02 0.551E+01
   0.116E+02 0.373E-01 0.494E+02   -.120E+02 -.427E-01 -.545E+02   0.399E+00 0.572E-02 0.551E+01
   -.160E+00 0.539E-01 0.523E+02   0.108E+01 -.590E-01 -.573E+02   -.101E+01 0.531E-02 0.544E+01
   0.288E+02 -.391E+02 -.149E+02   -.313E+02 0.435E+02 0.168E+02   0.264E+01 -.454E+01 -.196E+01
   0.318E+02 -.395E+02 -.535E+01   -.346E+02 0.438E+02 0.657E+01   0.299E+01 -.455E+01 -.127E+01
   0.318E+02 -.395E+02 -.535E+01   -.346E+02 0.438E+02 0.657E+01   0.299E+01 -.455E+01 -.127E+01
   0.288E+02 -.391E+02 -.149E+02   -.313E+02 0.435E+02 0.168E+02   0.264E+01 -.454E+01 -.196E+01
   0.318E+02 -.395E+02 -.535E+01   -.346E+02 0.438E+02 0.657E+01   0.299E+01 -.455E+01 -.127E+01
   0.288E+02 -.391E+02 -.149E+02   -.313E+02 0.435E+02 0.168E+02   0.264E+01 -.454E+01 -.196E+01
   0.288E+02 -.391E+02 -.149E+02   -.313E+02 0.435E+02 0.168E+02   0.264E+01 -.454E+01 -.196E+01
   0.318E+02 -.395E+02 -.535E+01   -.346E+02 0.438E+02 0.657E+01   0.299E+01 -.455E+01 -.127E+01
   0.287E+02 0.392E+02 -.150E+02   -.312E+02 -.435E+02 0.169E+02   0.263E+01 0.454E+01 -.196E+01
   0.318E+02 0.395E+02 -.544E+01   -.346E+02 -.438E+02 0.667E+01   0.299E+01 0.454E+01 -.128E+01
   0.318E+02 0.395E+02 -.544E+01   -.346E+02 -.438E+02 0.667E+01   0.299E+01 0.454E+01 -.128E+01
   0.287E+02 0.392E+02 -.150E+02   -.312E+02 -.435E+02 0.169E+02   0.263E+01 0.454E+01 -.196E+01
   0.318E+02 0.395E+02 -.544E+01   -.346E+02 -.438E+02 0.667E+01   0.299E+01 0.454E+01 -.128E+01
   0.287E+02 0.392E+02 -.150E+02   -.312E+02 -.435E+02 0.169E+02   0.263E+01 0.454E+01 -.196E+01
   0.287E+02 0.392E+02 -.150E+02   -.312E+02 -.435E+02 0.169E+02   0.263E+01 0.454E+01 -.196E+01
   0.318E+02 0.395E+02 -.544E+01   -.346E+02 -.438E+02 0.667E+01   0.299E+01 0.454E+01 -.128E+01
   -.307E+02 -.485E+02 0.203E+02   0.338E+02 0.536E+02 -.225E+02   -.331E+01 -.543E+01 0.227E+01
   -.363E+02 -.481E+02 0.145E+02   0.397E+02 0.531E+02 -.159E+02   -.371E+01 -.541E+01 0.142E+01
   -.363E+02 -.481E+02 0.145E+02   0.397E+02 0.531E+02 -.159E+02   -.371E+01 -.541E+01 0.142E+01
   -.307E+02 -.485E+02 0.203E+02   0.338E+02 0.536E+02 -.225E+02   -.331E+01 -.543E+01 0.227E+01
   -.363E+02 -.481E+02 0.145E+02   0.397E+02 0.531E+02 -.159E+02   -.371E+01 -.541E+01 0.142E+01
   -.307E+02 -.485E+02 0.203E+02   0.338E+02 0.536E+02 -.225E+02   -.331E+01 -.543E+01 0.227E+01
   -.307E+02 -.485E+02 0.203E+02   0.338E+02 0.536E+02 -.225E+02   -.331E+01 -.543E+01 0.227E+01
   -.363E+02 -.481E+02 0.145E+02   0.397E+02 0.531E+02 -.159E+02   -.371E+01 -.541E+01 0.142E+01
   -.308E+02 0.484E+02 0.203E+02   0.339E+02 -.535E+02 -.224E+02   -.332E+01 0.542E+01 0.226E+01
   -.363E+02 0.481E+02 0.144E+02   0.397E+02 -.531E+02 -.157E+02   -.371E+01 0.542E+01 0.140E+01
   -.363E+02 0.481E+02 0.144E+02   0.397E+02 -.531E+02 -.157E+02   -.371E+01 0.542E+01 0.140E+01
   -.308E+02 0.484E+02 0.203E+02   0.339E+02 -.535E+02 -.224E+02   -.332E+01 0.542E+01 0.226E+01
   -.363E+02 0.481E+02 0.144E+02   0.397E+02 -.531E+02 -.157E+02   -.371E+01 0.542E+01 0.140E+01
   -.308E+02 0.484E+02 0.203E+02   0.339E+02 -.535E+02 -.224E+02   -.332E+01 0.542E+01 0.226E+01
   -.308E+02 0.484E+02 0.203E+02   0.339E+02 -.535E+02 -.224E+02   -.332E+01 0.542E+01 0.226E+01
   -.363E+02 0.481E+02 0.144E+02   0.397E+02 -.531E+02 -.157E+02   -.371E+01 0.542E+01 0.140E+01
   -.448E+01 -.543E-01 -.603E+02   0.519E+01 0.585E-01 0.661E+02   -.896E+00 -.396E-02 -.646E+01
   0.106E+02 -.802E-01 -.648E+02   -.115E+02 0.903E-01 0.711E+02   0.955E+00 -.105E-01 -.683E+01
   0.106E+02 -.802E-01 -.648E+02   -.115E+02 0.903E-01 0.711E+02   0.955E+00 -.105E-01 -.683E+01
   -.448E+01 -.543E-01 -.603E+02   0.519E+01 0.585E-01 0.661E+02   -.896E+00 -.396E-02 -.646E+01
   0.106E+02 -.802E-01 -.648E+02   -.115E+02 0.903E-01 0.711E+02   0.955E+00 -.105E-01 -.683E+01
   -.448E+01 -.543E-01 -.603E+02   0.519E+01 0.585E-01 0.661E+02   -.896E+00 -.396E-02 -.646E+01
   -.448E+01 -.543E-01 -.603E+02   0.519E+01 0.585E-01 0.661E+02   -.896E+00 -.396E-02 -.646E+01
   0.106E+02 -.802E-01 -.648E+02   -.115E+02 0.903E-01 0.711E+02   0.955E+00 -.105E-01 -.683E+01
   -.305E+02 0.780E+01 -.112E+02   0.292E+02 -.775E+01 0.109E+02   0.120E+01 -.567E-01 0.332E+00
   -.305E+02 -.766E+01 -.112E+02   0.292E+02 0.760E+01 0.109E+02   0.121E+01 0.675E-01 0.333E+00
   -.305E+02 -.766E+01 -.112E+02   0.292E+02 0.760E+01 0.109E+02   0.121E+01 0.675E-01 0.333E+00
   -.305E+02 0.780E+01 -.112E+02   0.292E+02 -.775E+01 0.109E+02   0.120E+01 -.567E-01 0.332E+00
   -.305E+02 -.766E+01 -.112E+02   0.292E+02 0.760E+01 0.109E+02   0.121E+01 0.675E-01 0.333E+00
   -.305E+02 0.780E+01 -.112E+02   0.292E+02 -.775E+01 0.109E+02   0.120E+01 -.567E-01 0.332E+00
   -.305E+02 0.780E+01 -.112E+02   0.292E+02 -.775E+01 0.109E+02   0.120E+01 -.567E-01 0.332E+00
   -.305E+02 -.766E+01 -.112E+02   0.292E+02 0.760E+01 0.109E+02   0.121E+01 0.675E-01 0.333E+00
   -.169E+02 -.348E+01 0.539E+01   0.171E+02 0.357E+01 -.532E+01   -.827E-01 -.861E-01 -.738E-01
   -.171E+02 0.356E+01 0.537E+01   0.172E+02 -.365E+01 -.531E+01   -.846E-01 0.869E-01 -.739E-01
   -.171E+02 0.356E+01 0.537E+01   0.172E+02 -.365E+01 -.531E+01   -.846E-01 0.869E-01 -.739E-01
   -.169E+02 -.348E+01 0.539E+01   0.171E+02 0.357E+01 -.532E+01   -.827E-01 -.861E-01 -.738E-01
   -.171E+02 0.356E+01 0.537E+01   0.172E+02 -.365E+01 -.531E+01   -.846E-01 0.869E-01 -.739E-01
   -.169E+02 -.348E+01 0.539E+01   0.171E+02 0.357E+01 -.532E+01   -.827E-01 -.861E-01 -.738E-01
   -.169E+02 -.348E+01 0.539E+01   0.171E+02 0.357E+01 -.532E+01   -.827E-01 -.861E-01 -.738E-01
   -.171E+02 0.356E+01 0.537E+01   0.172E+02 -.365E+01 -.531E+01   -.846E-01 0.869E-01 -.739E-01
   -.373E+02 -.517E-01 -.108E+02   0.376E+02 0.530E-01 0.112E+02   -.170E+00 -.105E-02 -.476E+00
   0.930E+01 -.530E-01 -.178E+02   -.974E+01 0.544E-01 0.186E+02   0.451E+00 -.113E-02 -.868E+00
   0.930E+01 -.530E-01 -.178E+02   -.974E+01 0.544E-01 0.186E+02   0.451E+00 -.113E-02 -.868E+00
   -.373E+02 -.517E-01 -.108E+02   0.376E+02 0.530E-01 0.112E+02   -.170E+00 -.105E-02 -.476E+00
   0.930E+01 -.530E-01 -.178E+02   -.974E+01 0.544E-01 0.186E+02   0.451E+00 -.113E-02 -.868E+00
   -.373E+02 -.517E-01 -.108E+02   0.376E+02 0.530E-01 0.112E+02   -.170E+00 -.105E-02 -.476E+00
   -.373E+02 -.517E-01 -.108E+02   0.376E+02 0.530E-01 0.112E+02   -.170E+00 -.105E-02 -.476E+00
   0.930E+01 -.530E-01 -.178E+02   -.974E+01 0.544E-01 0.186E+02   0.451E+00 -.113E-02 -.868E+00
   0.514E+01 0.238E+01 -.542E+01   -.460E+01 -.218E+01 0.502E+01   -.573E+00 -.205E+00 0.489E+00
   0.515E+01 -.239E+01 -.550E+01   -.461E+01 0.219E+01 0.509E+01   -.574E+00 0.203E+00 0.489E+00
   0.515E+01 -.239E+01 -.550E+01   -.461E+01 0.219E+01 0.509E+01   -.574E+00 0.203E+00 0.489E+00
   0.514E+01 0.238E+01 -.542E+01   -.460E+01 -.218E+01 0.502E+01   -.573E+00 -.205E+00 0.489E+00
   0.515E+01 -.239E+01 -.550E+01   -.461E+01 0.219E+01 0.509E+01   -.574E+00 0.203E+00 0.489E+00
   0.514E+01 0.238E+01 -.542E+01   -.460E+01 -.218E+01 0.502E+01   -.573E+00 -.205E+00 0.489E+00
   0.514E+01 0.238E+01 -.542E+01   -.460E+01 -.218E+01 0.502E+01   -.573E+00 -.205E+00 0.489E+00
   0.515E+01 -.239E+01 -.550E+01   -.461E+01 0.219E+01 0.509E+01   -.574E+00 0.203E+00 0.489E+00
 -----------------------------------------------------------------------------------------------
   -.609E+02 -.106E+00 -.240E+02   -.488E-12 -.211E-12 0.831E-12   0.570E+02 0.985E-01 0.226E+02
 
 
 POSITION                                       TOTAL-FORCE (eV/Angst)
 -----------------------------------------------------------------------------------
      2.51886      3.11293      2.94104        -0.119896     -0.000975     -0.168436
      8.78911      3.11531      3.01830        -0.058468     -0.000946     -0.188789
      2.50129      9.34312      2.94883        -0.058468     -0.000946     -0.188789
      8.80787      9.34266      3.00976        -0.119896     -0.000975     -0.168436
      2.57040      3.11440      9.32291        -0.058468     -0.000946     -0.188789
      8.87698      3.11393      9.38385        -0.119896     -0.000975     -0.168436
      2.58916      9.34174      9.31437        -0.119896     -0.000975     -0.168436
      8.85941      9.34412      9.39164        -0.058468     -0.000946     -0.188789
      3.95108      3.11459      3.35840         0.449665     -0.000565      0.212839
     10.07453      3.11644      3.77713         0.359640     -0.000641      0.208092
      3.78671      9.34425      3.70766         0.359640     -0.000641      0.208092
     10.24010      9.34432      3.42713         0.449665     -0.000565      0.212839
      3.85582      3.11553     10.08174         0.359640     -0.000641      0.208092
     10.30920      3.11559      9.80121         0.449665     -0.000565      0.212839
      4.02138      9.34341      9.73174         0.449665     -0.000565      0.212839
     10.14484      9.34526     10.15047         0.359640     -0.000641      0.208092
      2.46832      3.11183      1.83390         0.068941      0.000626      0.679220
      9.01893      3.11425      1.93443        -0.133849      0.000468      0.696022
      2.73111      9.34206      1.86496        -0.133849      0.000468      0.696022
      8.75734      9.34156      1.90263         0.068941      0.000626      0.679220
      2.80022      3.11333      8.23904        -0.133849      0.000468      0.696022
      8.82644      3.11284      8.27671         0.068941      0.000626      0.679220
      2.53862      9.34065      8.20724         0.068941      0.000626      0.679220
      9.08923      9.34306      8.30777        -0.133849      0.000468      0.696022
      2.02550      4.01430      3.33915         0.273087     -0.365085     -0.163773
      8.21709      4.01872      3.28644         0.302662     -0.378535     -0.106813
      1.92927     10.24653      3.21697         0.302662     -0.378535     -0.106813
      8.31452     10.24403      3.40788         0.273087     -0.365085     -0.163773
      1.99838      4.01781      9.59106         0.302662     -0.378535     -0.106813
      8.38363      4.01531      9.78196         0.273087     -0.365085     -0.163773
      2.09581     10.24312      9.71249         0.273087     -0.365085     -0.163773
      8.28740     10.24753      9.65978         0.302662     -0.378535     -0.106813
      2.02727      2.21131      3.34086         0.272123      0.366051     -0.165131
      8.21765      2.21211      3.28843         0.302354      0.379140     -0.108286
      1.92983      8.43992      3.21896         0.302354      0.379140     -0.108286
      8.31629      8.44104      3.40959         0.272123      0.366051     -0.165131
      1.99894      2.21120      9.59304         0.302354      0.379140     -0.108286
      8.38540      2.21232      9.78367         0.272123      0.366051     -0.165131
      2.09758      8.44013      9.71420         0.272123      0.366051     -0.165131
      8.28796      8.44093      9.66177         0.302354      0.379140     -0.108286
      4.46214      3.95928      3.00502        -0.403448     -0.557335      0.227832
     10.65382      3.96292      3.55282        -0.450920     -0.571189      0.133271
      4.36600     10.19073      3.48335        -0.450920     -0.571189      0.133271
     10.75116     10.18900      3.07375        -0.403448     -0.557335      0.227832
      4.43511      3.96201      9.85744        -0.450920     -0.571189      0.133271
     10.82026      3.96028      9.44783        -0.403448     -0.557335      0.227832
      4.53244     10.18809      9.37836        -0.403448     -0.557335      0.227832
     10.72412     10.19174      9.92616        -0.450920     -0.571189      0.133271
      4.46360      2.27021      3.00621        -0.405177      0.557840      0.226433
     10.65385      2.26928      3.55528        -0.451658      0.572302      0.130849
      4.36603      8.49710      3.48581        -0.451658      0.572302      0.130849
     10.75262      8.49994      3.07494        -0.405177      0.557840      0.226433
      4.43514      2.26837      9.85989        -0.451658      0.572302      0.130849
     10.82172      2.27121      9.44902        -0.405177      0.557840      0.226433
      4.53390      8.49902      9.37955        -0.405177      0.557840      0.226433
     10.72415      8.49810      9.92862        -0.451658      0.572302      0.130849
      4.08933      3.11525      4.40692        -0.225849      0.000048     -0.872102
      9.92468      3.11803      4.81180         0.061722     -0.000948     -0.848809
      3.63686      9.34584      4.74233         0.061722     -0.000948     -0.848809
     10.37835      9.34498      4.47565        -0.225849      0.000048     -0.872102
      3.70597      3.11711     11.11641         0.061722     -0.000948     -0.848809
     10.44745      3.11626     10.84973        -0.225849      0.000048     -0.872102
      4.15963      9.34407     10.78026        -0.225849      0.000048     -0.872102
      9.99498      9.34684     11.18513         0.061722     -0.000948     -0.848809
      6.01052      6.20725      6.29594         0.014185     -0.014242      0.004601
     12.29903      6.25289      6.36516         0.014219      0.013881      0.004678
      6.01002      0.02316      6.29644         0.014219      0.013881      0.004678
     12.29954     12.43698      6.36467         0.014185     -0.014242      0.004601
      6.08032      6.25198     12.66977         0.014219      0.013881      0.004678
     12.36864      6.20825     12.73875         0.014185     -0.014242      0.004601
      6.08082     12.43606     12.66928         0.014185     -0.014242      0.004601
     12.36814      0.02417     12.73925         0.014219      0.013881      0.004678
      5.75243      6.27580      3.09093         0.048931      0.003186     -0.011295
     12.04190      6.18426      3.15999         0.049131     -0.003750     -0.011247
      5.75407     12.41207      3.09052         0.049131     -0.003750     -0.011247
     12.04025      0.04799      3.16040         0.048931      0.003186     -0.011295
      5.82318      6.18335      9.46460         0.049131     -0.003750     -0.011247
     12.11056      6.27680      9.53374         0.048931      0.003186     -0.011295
      5.82154      0.04707      9.46501         0.048931      0.003186     -0.011295
     12.11220     12.41307      9.53333         0.049131     -0.003750     -0.011247
      6.00296      3.11496      0.20091         0.094964      0.000204     -0.035848
     11.59934      3.11597      0.29375         0.036791      0.000214     -0.048156
      5.31151      9.34378      0.22428         0.036791      0.000214     -0.048156
     12.29198      9.34468      0.26964         0.094964      0.000204     -0.035848
      5.38062      3.11506      6.59837         0.036791      0.000214     -0.048156
     12.36109      3.11596      6.64372         0.094964      0.000204     -0.035848
      6.07327      9.34377      6.57425         0.094964      0.000204     -0.035848
     11.66964      9.34479      6.66709         0.036791      0.000214     -0.048156
      2.78361      6.62255      5.90951        -0.049484     -0.018416      0.102193
      9.07211      5.83679      5.97782        -0.049667      0.018666      0.102656
      2.78429     12.06461      5.90835        -0.049667      0.018666      0.102656
      9.07143      0.39474      5.97899        -0.049484     -0.018416      0.102193
      2.85340      5.83588     12.28243        -0.049667      0.018666      0.102656
      9.14173      6.62355     12.35232        -0.049484     -0.018416      0.102193
      2.85272      0.39382     12.28360        -0.049484     -0.018416      0.102193
      9.14242     12.06561     12.35116        -0.049667      0.018666      0.102656
 -----------------------------------------------------------------------------------
    total drift:                                0.007091      0.000387     -0.000442


--------------------------------------------------------------------------------------------------------



  FREE ENERGIE OF THE ION-ELECTRON SYSTEM (eV)
  ---------------------------------------------------
  free  energy   TOTEN  =      -479.22713250 eV

  energy  without entropy=     -479.22713250  energy(sigma->0) =     -479.22713250
 


--------------------------------------------------------------------------------------------------------


    POTLOK:  cpu time    1.5761: real time    1.5770


--------------------------------------------------------------------------------------------------------


     LOOP+:  cpu time37008.0169: real time37087.8824
    4ORBIT:  cpu time    0.0000: real time    0.0000

 total amount of memory used by VASP on root node   295816. kBytes
========================================================================

   base      :      30000. kBytes
   nonl-proj :      43211. kBytes
   fftplans  :      20236. kBytes
   grid      :      14122. kBytes
   one-center:         62. kBytes
   HF        :        194. kBytes
   nonlr-proj:      28640. kBytes
   wavefun   :     159351. kBytes
 
  
  
 General timing and accounting informations for this job:
 ========================================================
  
                  Total CPU time used (sec):    37058.012
                            User time (sec):    37029.766
                          System time (sec):       28.246
                         Elapsed time (sec):    37138.168
  
                   Maximum memory used (kb):      446044.
                   Average memory used (kb):           0.
  
                          Minor page faults:      1139724
                          Major page faults:            0
                 Voluntary context switches:         3416
