   2   2   1   0
  0.3405476E+02  0.4583961E-09  0.4583961E-09  0.4583961E-09  0.5000000E-15
  1.000000000000000E-004
  CAR 
 Name                                    
     16.70841266    -11.59693076  301      1.91887073      1.00000000
    -11.597  0.0000E+00  0.0000E+00
    -11.503  0.0000E+00  0.0000E+00
    -11.408  0.0000E+00  0.0000E+00
    -11.314  0.0000E+00  0.0000E+00
    -11.220  0.0000E+00  0.0000E+00
    -11.125  0.0000E+00  0.0000E+00
    -11.031  0.0000E+00  0.0000E+00
    -10.936  0.0000E+00  0.0000E+00
    -10.842  0.0000E+00  0.0000E+00
    -10.748  0.0000E+00  0.0000E+00
    -10.653  0.0000E+00  0.0000E+00
    -10.559  0.0000E+00  0.0000E+00
    -10.465  0.0000E+00  0.0000E+00
    -10.370  0.0000E+00  0.0000E+00
    -10.276  0.9814E-01  0.9259E-02
    -10.182  0.8656E+00  0.9093E-01
    -10.087  0.4947E-01  0.1436E+00
     -9.993  0.3128E+01  0.5451E+00
     -9.899  0.4424E+01  0.9637E+00
     -9.804  0.7170E+01  0.1982E+01
     -9.710  0.0000E+00  0.2000E+01
     -9.616  0.0000E+00  0.2000E+01
     -9.521  0.0000E+00  0.2000E+01
     -9.427  0.0000E+00  0.2000E+01
     -9.333  0.0000E+00  0.2000E+01
     -9.238  0.0000E+00  0.2000E+01
     -9.144  0.0000E+00  0.2000E+01
     -9.049  0.0000E+00  0.2000E+01
     -8.955  0.0000E+00  0.2000E+01
     -8.861  0.0000E+00  0.2000E+01
     -8.766  0.0000E+00  0.2000E+01
     -8.672  0.0000E+00  0.2000E+01
     -8.578  0.0000E+00  0.2000E+01
     -8.483  0.0000E+00  0.2000E+01
     -8.389  0.0000E+00  0.2000E+01
     -8.295  0.0000E+00  0.2000E+01
     -8.200  0.0000E+00  0.2000E+01
     -8.106  0.0000E+00  0.2000E+01
     -8.012  0.0000E+00  0.2000E+01
     -7.917  0.0000E+00  0.2000E+01
     -7.823  0.0000E+00  0.2000E+01
     -7.729  0.1706E+01  0.2161E+01
     -7.634  0.3122E+02  0.5344E+01
     -7.540  0.7618E+01  0.6473E+01
     -7.445  0.3388E+02  0.1020E+02
     -7.351  0.2029E+01  0.1044E+02
     -7.257  0.7851E+00  0.1055E+02
     -7.162  0.5888E+00  0.1060E+02
     -7.068  0.3922E+01  0.1097E+02
     -6.974  0.2748E+01  0.1131E+02
     -6.879  0.2370E+01  0.1153E+02
     -6.785  0.4970E+01  0.1200E+02
     -6.691  0.0000E+00  0.1200E+02
     -6.596  0.0000E+00  0.1200E+02
     -6.502  0.0000E+00  0.1200E+02
     -6.408  0.0000E+00  0.1200E+02
     -6.313  0.0000E+00  0.1200E+02
     -6.219  0.0000E+00  0.1200E+02
     -6.125  0.0000E+00  0.1200E+02
     -6.030  0.0000E+00  0.1200E+02
     -5.936  0.0000E+00  0.1200E+02
     -5.842  0.0000E+00  0.1200E+02
     -5.747  0.0000E+00  0.1200E+02
     -5.653  0.0000E+00  0.1200E+02
     -5.558  0.0000E+00  0.1200E+02
     -5.464  0.0000E+00  0.1200E+02
     -5.370  0.0000E+00  0.1200E+02
     -5.275  0.0000E+00  0.1200E+02
     -5.181  0.0000E+00  0.1200E+02
     -5.087  0.0000E+00  0.1200E+02
     -4.992  0.0000E+00  0.1200E+02
     -4.898  0.0000E+00  0.1200E+02
     -4.804  0.0000E+00  0.1200E+02
     -4.709  0.0000E+00  0.1200E+02
     -4.615  0.0000E+00  0.1200E+02
     -4.521  0.0000E+00  0.1200E+02
     -4.426  0.0000E+00  0.1200E+02
     -4.332  0.0000E+00  0.1200E+02
     -4.238  0.0000E+00  0.1200E+02
     -4.143  0.0000E+00  0.1200E+02
     -4.049  0.0000E+00  0.1200E+02
     -3.954  0.0000E+00  0.1200E+02
     -3.860  0.0000E+00  0.1200E+02
     -3.766  0.0000E+00  0.1200E+02
     -3.671  0.0000E+00  0.1200E+02
     -3.577  0.0000E+00  0.1200E+02
     -3.483  0.0000E+00  0.1200E+02
     -3.388  0.0000E+00  0.1200E+02
     -3.294  0.0000E+00  0.1200E+02
     -3.200  0.0000E+00  0.1200E+02
     -3.105  0.0000E+00  0.1200E+02
     -3.011  0.0000E+00  0.1200E+02
     -2.917  0.3357E-01  0.1200E+02
     -2.822  0.4481E-13  0.1204E+02
     -2.728  0.2944E+00  0.1206E+02
     -2.634  0.3530E+01  0.1240E+02
     -2.539  0.4378E+01  0.1281E+02
     -2.445  0.0000E+00  0.1295E+02
     -2.351  0.2355E+01  0.1318E+02
     -2.256  0.0000E+00  0.1318E+02
     -2.162  0.2355E+01  0.1340E+02
     -2.067  0.0000E+00  0.1340E+02
     -1.973  0.7075E+00  0.1346E+02
     -1.879  0.1432E-03  0.1347E+02
     -1.784  0.5887E+00  0.1353E+02
     -1.690  0.0000E+00  0.1353E+02
     -1.596  0.0000E+00  0.1353E+02
     -1.501  0.6814E-05  0.1353E+02
     -1.407  0.2355E+01  0.1375E+02
     -1.313  0.0000E+00  0.1375E+02
     -1.218  0.0000E+00  0.1375E+02
     -1.124  0.0000E+00  0.1375E+02
     -1.030  0.1921E-01  0.1375E+02
     -0.935  0.2336E+01  0.1397E+02
     -0.841  0.0000E+00  0.1397E+02
     -0.747  0.1580E-03  0.1397E+02
     -0.652  0.2355E+01  0.1419E+02
     -0.558  0.2562E+00  0.1422E+02
     -0.463  0.2185E+01  0.1451E+02
     -0.369  0.3210E+01  0.1483E+02
     -0.275  0.0000E+00  0.1486E+02
     -0.180  0.2387E-01  0.1486E+02
     -0.086  0.3154E-05  0.1492E+02
      0.008  0.2355E+01  0.1514E+02
      0.103  0.5584E+01  0.1567E+02
      0.197  0.2354E+01  0.1594E+02
      0.291  0.1178E+01  0.1605E+02
      0.386  0.6685E-05  0.1605E+02
      0.480  0.3533E+01  0.1638E+02
      0.574  0.1178E+01  0.1649E+02
      0.669  0.4321E+01  0.1690E+02
      0.763  0.2237E+01  0.1715E+02
      0.857  0.0000E+00  0.1716E+02
      0.952  0.1587E-03  0.1716E+02
      1.046  0.3140E+01  0.1745E+02
      1.140  0.4643E-08  0.1745E+02
      1.235  0.2748E+01  0.1771E+02
      1.329  0.0000E+00  0.1771E+02
      1.424  0.1987E-06  0.1771E+02
      1.518  0.1178E+01  0.1782E+02
      1.612  0.1569E+01  0.1797E+02
      1.707  0.0000E+00  0.1797E+02
      1.801  0.2455E-05  0.1797E+02
      1.895  0.2944E+00  0.1800E+02
      1.990  0.0000E+00  0.1800E+02
      2.084  0.0000E+00  0.1800E+02
      2.178  0.0000E+00  0.1800E+02
      2.273  0.0000E+00  0.1800E+02
      2.367  0.0000E+00  0.1800E+02
      2.461  0.0000E+00  0.1800E+02
      2.556  0.0000E+00  0.1800E+02
      2.650  0.0000E+00  0.1800E+02
      2.744  0.0000E+00  0.1800E+02
      2.839  0.0000E+00  0.1800E+02
      2.933  0.0000E+00  0.1800E+02
      3.027  0.0000E+00  0.1800E+02
      3.122  0.0000E+00  0.1800E+02
      3.216  0.0000E+00  0.1800E+02
      3.311  0.0000E+00  0.1800E+02
      3.405  0.9813E-01  0.1801E+02
      3.499  0.0000E+00  0.1801E+02
      3.594  0.0000E+00  0.1801E+02
      3.688  0.0000E+00  0.1801E+02
      3.782  0.0000E+00  0.1801E+02
      3.877  0.0000E+00  0.1801E+02
      3.971  0.0000E+00  0.1801E+02
      4.065  0.0000E+00  0.1801E+02
      4.160  0.0000E+00  0.1801E+02
      4.254  0.0000E+00  0.1801E+02
      4.348  0.0000E+00  0.1801E+02
      4.443  0.2005E+00  0.1803E+02
      4.537  0.7781E+00  0.1812E+02
      4.631  0.7848E+00  0.1819E+02
      4.726  0.0000E+00  0.1819E+02
      4.820  0.0000E+00  0.1819E+02
      4.915  0.0000E+00  0.1819E+02
      5.009  0.0000E+00  0.1819E+02
      5.103  0.1968E+00  0.1821E+02
      5.198  0.5801E+00  0.1828E+02
      5.292  0.9281E-01  0.1829E+02
      5.386  0.1769E+01  0.1847E+02
      5.481  0.4708E+01  0.1892E+02
      5.575  0.4710E+01  0.1936E+02
      5.669  0.1770E+00  0.1938E+02
      5.764  0.2922E+00  0.1950E+02
      5.858  0.0000E+00  0.1953E+02
      5.952  0.0000E+00  0.1953E+02
      6.047  0.0000E+00  0.1953E+02
      6.141  0.0000E+00  0.1953E+02
      6.235  0.0000E+00  0.1953E+02
      6.330  0.1610E+01  0.1968E+02
      6.424  0.3530E+01  0.2014E+02
      6.518  0.3528E+01  0.2047E+02
      6.613  0.0000E+00  0.2047E+02
      6.707  0.1495E+01  0.2061E+02
      6.802  0.2355E+01  0.2092E+02
      6.896  0.0000E+00  0.2092E+02
      6.990  0.0000E+00  0.2092E+02
      7.085  0.0000E+00  0.2092E+02
      7.179  0.0000E+00  0.2092E+02
      7.273  0.2355E+01  0.2114E+02
      7.368  0.2400E+01  0.2137E+02
      7.462  0.7851E+00  0.2157E+02
      7.556  0.8560E-12  0.2157E+02
      7.651  0.2395E+01  0.2180E+02
      7.745  0.0000E+00  0.2194E+02
      7.839  0.5379E-10  0.2194E+02
      7.934  0.3247E+01  0.2225E+02
      8.028  0.2354E+01  0.2261E+02
      8.122  0.0000E+00  0.2261E+02
      8.217  0.8388E+00  0.2269E+02
      8.311  0.5153E+00  0.2277E+02
      8.406  0.4239E+01  0.2323E+02
      8.500  0.4205E-06  0.2328E+02
      8.594  0.2355E+01  0.2350E+02
      8.689  0.1132E+01  0.2361E+02
      8.783  0.0000E+00  0.2372E+02
      8.877  0.1190E-03  0.2372E+02
      8.972  0.2355E+01  0.2394E+02
      9.066  0.7851E+00  0.2402E+02
      9.160  0.2355E+01  0.2424E+02
      9.255  0.0000E+00  0.2424E+02
      9.349  0.3453E+00  0.2427E+02
      9.443  0.4362E-07  0.2446E+02
      9.538  0.1178E+01  0.2457E+02
      9.632  0.2027E-14  0.2457E+02
      9.726  0.1195E+01  0.2469E+02
      9.821  0.5062E+01  0.2516E+02
      9.915  0.5888E+00  0.2522E+02
     10.009  0.1864E-04  0.2522E+02
     10.104  0.2356E+01  0.2544E+02
     10.198  0.5884E+00  0.2550E+02
     10.293  0.1864E+01  0.2568E+02
     10.387  0.1272E+01  0.2584E+02
     10.481  0.2355E+01  0.2606E+02
     10.576  0.4797E-01  0.2607E+02
     10.670  0.2307E+01  0.2629E+02
     10.764  0.2355E+01  0.2651E+02
     10.859  0.2965E+01  0.2679E+02
     10.953  0.0000E+00  0.2681E+02
     11.047  0.2355E+01  0.2703E+02
     11.142  0.0000E+00  0.2703E+02
     11.236  0.1169E+01  0.2714E+02
     11.330  0.3140E+01  0.2747E+02
     11.425  0.0000E+00  0.2747E+02
     11.519  0.0000E+00  0.2747E+02
     11.613  0.3925E+00  0.2751E+02
     11.708  0.3880E+01  0.2788E+02
     11.802  0.2489E+00  0.2790E+02
     11.897  0.1178E+01  0.2813E+02
     11.991  0.0000E+00  0.2813E+02
     12.085  0.3098E+01  0.2842E+02
     12.180  0.7546E+00  0.2865E+02
     12.274  0.5880E+00  0.2870E+02
     12.368  0.0000E+00  0.2870E+02
     12.463  0.5888E+00  0.2876E+02
     12.557  0.4184E-14  0.2876E+02
     12.651  0.5127E+01  0.2924E+02
     12.746  0.1178E+01  0.2943E+02
     12.840  0.0000E+00  0.2943E+02
     12.934  0.2119E+01  0.2963E+02
     13.029  0.0000E+00  0.2965E+02
     13.123  0.1876E-01  0.2965E+02
     13.217  0.1722E+01  0.2987E+02
     13.312  0.7888E+00  0.3022E+02
     13.406  0.4043E+01  0.3060E+02
     13.500  0.0000E+00  0.3067E+02
     13.595  0.4943E-04  0.3067E+02
     13.689  0.2355E+01  0.3089E+02
     13.784  0.2944E+00  0.3092E+02
     13.878  0.0000E+00  0.3092E+02
     13.972  0.0000E+00  0.3092E+02
     14.067  0.3032E-02  0.3092E+02
     14.161  0.1175E+01  0.3103E+02
     14.255  0.2355E+01  0.3125E+02
     14.350  0.9217E+00  0.3134E+02
     14.444  0.3246E+00  0.3139E+02
     14.538  0.2650E+01  0.3183E+02
     14.633  0.0000E+00  0.3183E+02
     14.727  0.0000E+00  0.3183E+02
     14.821  0.0000E+00  0.3183E+02
     14.916  0.0000E+00  0.3183E+02
     15.010  0.4676E+00  0.3188E+02
     15.104  0.6537E-16  0.3189E+02
     15.199  0.1178E+01  0.3200E+02
     15.293  0.0000E+00  0.3200E+02
     15.387  0.0000E+00  0.3200E+02
     15.482  0.0000E+00  0.3200E+02
     15.576  0.0000E+00  0.3200E+02
     15.671  0.0000E+00  0.3200E+02
     15.765  0.0000E+00  0.3200E+02
     15.859  0.0000E+00  0.3200E+02
     15.954  0.0000E+00  0.3200E+02
     16.048  0.0000E+00  0.3200E+02
     16.142  0.0000E+00  0.3200E+02
     16.237  0.0000E+00  0.3200E+02
     16.331  0.0000E+00  0.3200E+02
     16.425  0.0000E+00  0.3200E+02
     16.520  0.0000E+00  0.3200E+02
     16.614  0.0000E+00  0.3200E+02
     16.708  0.0000E+00  0.3200E+02
     16.70841266    -11.59693076  301      1.91887073      1.00000000
    -11.597  0.0000E+00  0.0000E+00  0.0000E+00
    -11.503  0.0000E+00  0.0000E+00  0.0000E+00
    -11.408  0.0000E+00  0.0000E+00  0.0000E+00
    -11.314  0.0000E+00  0.0000E+00  0.0000E+00
    -11.220  0.0000E+00  0.0000E+00  0.0000E+00
    -11.125  0.0000E+00  0.0000E+00  0.0000E+00
    -11.031  0.0000E+00  0.0000E+00  0.0000E+00
    -10.936  0.0000E+00  0.0000E+00  0.0000E+00
    -10.842  0.0000E+00  0.0000E+00  0.0000E+00
    -10.748  0.0000E+00  0.0000E+00  0.0000E+00
    -10.653  0.0000E+00  0.0000E+00  0.0000E+00
    -10.559  0.0000E+00  0.0000E+00  0.0000E+00
    -10.465  0.0000E+00  0.0000E+00  0.0000E+00
    -10.370  0.0000E+00  0.0000E+00  0.0000E+00
    -10.276  0.6346E-02  0.5527E-13  0.1412E-13
    -10.182  0.4618E-01  0.2278E-02  0.2310E-01
    -10.087  0.1867E-02  0.2932E-03  0.3438E-02
     -9.993  0.9181E-01  0.2361E-01  0.2986E+00
     -9.899  0.6846E-01  0.4434E-01  0.6334E+00
     -9.804  0.2391E-01  0.8738E-01  0.1342E+01
     -9.710  0.0000E+00  0.0000E+00  0.0000E+00
     -9.616  0.0000E+00  0.0000E+00  0.0000E+00
     -9.521  0.0000E+00  0.0000E+00  0.0000E+00
     -9.427  0.0000E+00  0.0000E+00  0.0000E+00
     -9.333  0.0000E+00  0.0000E+00  0.0000E+00
     -9.238  0.0000E+00  0.0000E+00  0.0000E+00
     -9.144  0.0000E+00  0.0000E+00  0.0000E+00
     -9.049  0.0000E+00  0.0000E+00  0.0000E+00
     -8.955  0.0000E+00  0.0000E+00  0.0000E+00
     -8.861  0.0000E+00  0.0000E+00  0.0000E+00
     -8.766  0.0000E+00  0.0000E+00  0.0000E+00
     -8.672  0.0000E+00  0.0000E+00  0.0000E+00
     -8.578  0.0000E+00  0.0000E+00  0.0000E+00
     -8.483  0.0000E+00  0.0000E+00  0.0000E+00
     -8.389  0.0000E+00  0.0000E+00  0.0000E+00
     -8.295  0.0000E+00  0.0000E+00  0.0000E+00
     -8.200  0.0000E+00  0.0000E+00  0.0000E+00
     -8.106  0.0000E+00  0.0000E+00  0.0000E+00
     -8.012  0.0000E+00  0.0000E+00  0.0000E+00
     -7.917  0.0000E+00  0.0000E+00  0.0000E+00
     -7.823  0.0000E+00  0.0000E+00  0.0000E+00
     -7.729  0.2625E-08  0.4931E-03  0.1564E+01
     -7.634  0.9625E-02  0.1003E-01  0.2888E+02
     -7.540  0.2740E-02  0.1632E-02  0.7121E+01
     -7.445  0.1028E-01  0.5732E-03  0.3211E+02
     -7.351  0.2189E-01  0.1579E-02  0.1710E+01
     -7.257  0.8928E-02  0.7927E-03  0.6524E+00
     -7.162  0.6701E-02  0.1248E-02  0.4713E+00
     -7.068  0.3995E-01  0.9572E-02  0.3130E+01
     -6.974  0.2072E-01  0.8169E-02  0.2194E+01
     -6.879  0.1109E-01  0.1141E-01  0.1817E+01
     -6.785  0.1308E-01  0.2487E-01  0.3823E+01
     -6.691  0.0000E+00  0.0000E+00  0.0000E+00
     -6.596  0.0000E+00  0.0000E+00  0.0000E+00
     -6.502  0.0000E+00  0.0000E+00  0.0000E+00
     -6.408  0.0000E+00  0.0000E+00  0.0000E+00
     -6.313  0.0000E+00  0.0000E+00  0.0000E+00
     -6.219  0.0000E+00  0.0000E+00  0.0000E+00
     -6.125  0.0000E+00  0.0000E+00  0.0000E+00
     -6.030  0.0000E+00  0.0000E+00  0.0000E+00
     -5.936  0.0000E+00  0.0000E+00  0.0000E+00
     -5.842  0.0000E+00  0.0000E+00  0.0000E+00
     -5.747  0.0000E+00  0.0000E+00  0.0000E+00
     -5.653  0.0000E+00  0.0000E+00  0.0000E+00
     -5.558  0.0000E+00  0.0000E+00  0.0000E+00
     -5.464  0.0000E+00  0.0000E+00  0.0000E+00
     -5.370  0.0000E+00  0.0000E+00  0.0000E+00
     -5.275  0.0000E+00  0.0000E+00  0.0000E+00
     -5.181  0.0000E+00  0.0000E+00  0.0000E+00
     -5.087  0.0000E+00  0.0000E+00  0.0000E+00
     -4.992  0.0000E+00  0.0000E+00  0.0000E+00
     -4.898  0.0000E+00  0.0000E+00  0.0000E+00
     -4.804  0.0000E+00  0.0000E+00  0.0000E+00
     -4.709  0.0000E+00  0.0000E+00  0.0000E+00
     -4.615  0.0000E+00  0.0000E+00  0.0000E+00
     -4.521  0.0000E+00  0.0000E+00  0.0000E+00
     -4.426  0.0000E+00  0.0000E+00  0.0000E+00
     -4.332  0.0000E+00  0.0000E+00  0.0000E+00
     -4.238  0.0000E+00  0.0000E+00  0.0000E+00
     -4.143  0.0000E+00  0.0000E+00  0.0000E+00
     -4.049  0.0000E+00  0.0000E+00  0.0000E+00
     -3.954  0.0000E+00  0.0000E+00  0.0000E+00
     -3.860  0.0000E+00  0.0000E+00  0.0000E+00
     -3.766  0.0000E+00  0.0000E+00  0.0000E+00
     -3.671  0.0000E+00  0.0000E+00  0.0000E+00
     -3.577  0.0000E+00  0.0000E+00  0.0000E+00
     -3.483  0.0000E+00  0.0000E+00  0.0000E+00
     -3.388  0.0000E+00  0.0000E+00  0.0000E+00
     -3.294  0.0000E+00  0.0000E+00  0.0000E+00
     -3.200  0.0000E+00  0.0000E+00  0.0000E+00
     -3.105  0.0000E+00  0.0000E+00  0.0000E+00
     -3.011  0.0000E+00  0.0000E+00  0.0000E+00
     -2.917  0.5266E-02  0.8862E-03  0.1461E-05
     -2.822  0.1045E-13  0.1800E-26  0.1079E-14
     -2.728  0.6864E-01  0.1183E-13  0.7090E-02
     -2.634  0.6963E+00  0.5137E-01  0.2989E-01
     -2.539  0.9782E+00  0.3344E-01  0.3888E-01
     -2.445  0.0000E+00  0.0000E+00  0.0000E+00
     -2.351  0.3889E+00  0.5324E-01  0.4170E-01
     -2.256  0.0000E+00  0.0000E+00  0.0000E+00
     -2.162  0.4600E+00  0.2839E-01  0.6482E-01
     -2.067  0.0000E+00  0.0000E+00  0.0000E+00
     -1.973  0.9525E-01  0.2028E-01  0.2135E-01
     -1.879  0.2757E-04  0.9634E-06  0.6892E-05
     -1.784  0.1133E+00  0.3960E-02  0.2833E-01
     -1.690  0.0000E+00  0.0000E+00  0.0000E+00
     -1.596  0.0000E+00  0.0000E+00  0.0000E+00
     -1.501  0.1015E-05  0.1426E-06  0.2931E-06
     -1.407  0.3509E+00  0.4930E-01  0.1013E+00
     -1.313  0.0000E+00  0.0000E+00  0.0000E+00
     -1.218  0.0000E+00  0.0000E+00  0.0000E+00
     -1.124  0.0000E+00  0.0000E+00  0.0000E+00
     -1.030  0.2587E-02  0.4468E-03  0.8991E-03
     -0.935  0.1610E+00  0.1096E+00  0.8223E-01
     -0.841  0.0000E+00  0.0000E+00  0.0000E+00
     -0.747  0.2516E-05  0.1043E-04  0.4299E-05
     -0.652  0.3749E-01  0.1554E+00  0.6406E-01
     -0.558  0.6334E-03  0.1733E-01  0.7967E-02
     -0.463  0.1334E-01  0.1589E+00  0.4620E-01
     -0.369  0.2630E-01  0.2350E+00  0.6437E-01
     -0.275  0.0000E+00  0.0000E+00  0.0000E+00
     -0.180  0.4619E-16  0.1873E-02  0.3642E-03
     -0.086  0.8372E-07  0.1909E-06  0.1062E-06
      0.008  0.6252E-01  0.1425E+00  0.7933E-01
      0.103  0.2081E+00  0.3157E+00  0.1948E+00
      0.197  0.2994E-02  0.1707E+00  0.6386E-01
      0.291  0.1601E-14  0.8550E-01  0.3202E-01
      0.386  0.3666E-12  0.4751E-06  0.1995E-06
      0.480  0.8953E-02  0.2424E+00  0.1152E+00
      0.574  0.1410E-01  0.7083E-01  0.4800E-01
      0.669  0.4372E-01  0.2637E+00  0.1707E+00
      0.763  0.9668E-12  0.1419E+00  0.9006E-01
      0.857  0.0000E+00  0.0000E+00  0.0000E+00
      0.952  0.3138E-17  0.9559E-05  0.6845E-05
      1.046  0.4709E-13  0.1890E+00  0.1353E+00
      1.140  0.1312E-22  0.2524E-09  0.2273E-09
      1.235  0.1345E-13  0.1461E+00  0.1392E+00
      1.329  0.0000E+00  0.0000E+00  0.0000E+00
      1.424  0.4096E-20  0.9059E-08  0.1126E-07
      1.518  0.2428E-13  0.5369E-01  0.6676E-01
      1.612  0.8896E-14  0.6142E-01  0.9792E-01
      1.707  0.0000E+00  0.0000E+00  0.0000E+00
      1.801  0.9881E-20  0.6890E-07  0.1733E-06
      1.895  0.1185E-14  0.8261E-02  0.2078E-01
      1.990  0.0000E+00  0.0000E+00  0.0000E+00
      2.084  0.0000E+00  0.0000E+00  0.0000E+00
      2.178  0.0000E+00  0.0000E+00  0.0000E+00
      2.273  0.0000E+00  0.0000E+00  0.0000E+00
      2.367  0.0000E+00  0.0000E+00  0.0000E+00
      2.461  0.0000E+00  0.0000E+00  0.0000E+00
      2.556  0.0000E+00  0.0000E+00  0.0000E+00
      2.650  0.0000E+00  0.0000E+00  0.0000E+00
      2.744  0.0000E+00  0.0000E+00  0.0000E+00
      2.839  0.0000E+00  0.0000E+00  0.0000E+00
      2.933  0.0000E+00  0.0000E+00  0.0000E+00
      3.027  0.0000E+00  0.0000E+00  0.0000E+00
      3.122  0.0000E+00  0.0000E+00  0.0000E+00
      3.216  0.0000E+00  0.0000E+00  0.0000E+00
      3.311  0.0000E+00  0.0000E+00  0.0000E+00
      3.405  0.2898E-01  0.3470E-15  0.5634E-14
      3.499  0.0000E+00  0.0000E+00  0.0000E+00
      3.594  0.0000E+00  0.0000E+00  0.0000E+00
      3.688  0.0000E+00  0.0000E+00  0.0000E+00
      3.782  0.0000E+00  0.0000E+00  0.0000E+00
      3.877  0.0000E+00  0.0000E+00  0.0000E+00
      3.971  0.0000E+00  0.0000E+00  0.0000E+00
      4.065  0.0000E+00  0.0000E+00  0.0000E+00
      4.160  0.0000E+00  0.0000E+00  0.0000E+00
      4.254  0.0000E+00  0.0000E+00  0.0000E+00
      4.348  0.0000E+00  0.0000E+00  0.0000E+00
      4.443  0.4954E-01  0.5806E-02  0.1674E-02
      4.537  0.1755E+00  0.2211E-01  0.2451E-02
      4.631  0.1877E+00  0.2921E-01  0.3777E-02
      4.726  0.0000E+00  0.0000E+00  0.0000E+00
      4.820  0.0000E+00  0.0000E+00  0.0000E+00
      4.915  0.0000E+00  0.0000E+00  0.0000E+00
      5.009  0.0000E+00  0.0000E+00  0.0000E+00
      5.103  0.1854E-02  0.1724E-01  0.6128E-02
      5.198  0.1238E+00  0.5215E-02  0.6366E-02
      5.292  0.1990E-01  0.3632E-07  0.3142E-02
      5.386  0.3327E+00  0.9092E-01  0.1578E-01
      5.481  0.7127E+00  0.2233E+00  0.1017E+00
      5.575  0.9824E+00  0.1798E+00  0.5190E-01
      5.669  0.2368E-01  0.9801E-02  0.4342E-02
      5.764  0.3323E-01  0.1136E-01  0.7715E-02
      5.858  0.0000E+00  0.0000E+00  0.0000E+00
      5.952  0.0000E+00  0.0000E+00  0.0000E+00
      6.047  0.0000E+00  0.0000E+00  0.0000E+00
      6.141  0.0000E+00  0.0000E+00  0.0000E+00
      6.235  0.0000E+00  0.0000E+00  0.0000E+00
      6.330  0.3860E+00  0.2855E-01  0.2430E-01
      6.424  0.2788E+00  0.1803E+00  0.1073E+00
      6.518  0.7433E+00  0.7909E-01  0.6957E-01
      6.613  0.0000E+00  0.0000E+00  0.0000E+00
      6.707  0.8297E-01  0.1786E+00  0.1682E-01
      6.802  0.6550E-06  0.2522E+00  0.5832E-01
      6.896  0.0000E+00  0.0000E+00  0.0000E+00
      6.990  0.0000E+00  0.0000E+00  0.0000E+00
      7.085  0.0000E+00  0.0000E+00  0.0000E+00
      7.179  0.0000E+00  0.0000E+00  0.0000E+00
      7.273  0.5139E-02  0.1590E+00  0.7506E-01
      7.368  0.8525E-01  0.2684E+00  0.4770E-01
      7.462  0.4175E-01  0.9394E-01  0.9029E-02
      7.556  0.1336E-13  0.7194E-13  0.2401E-13
      7.651  0.3676E-01  0.2069E+00  0.6629E-01
      7.745  0.0000E+00  0.0000E+00  0.0000E+00
      7.839  0.1199E-21  0.7880E-11  0.1617E-11
      7.934  0.1434E+00  0.4117E+00  0.5075E-01
      8.028  0.1131E-03  0.2118E+00  0.6349E-01
      8.122  0.0000E+00  0.0000E+00  0.0000E+00
      8.217  0.3343E-02  0.9161E-01  0.1571E-01
      8.311  0.1554E-10  0.1063E+00  0.5375E-02
      8.406  0.5839E-03  0.5545E+00  0.1127E+00
      8.500  0.2408E-07  0.3900E-07  0.6259E-08
      8.594  0.1349E+00  0.2184E+00  0.3505E-01
      8.689  0.1151E-10  0.1584E+00  0.3377E-01
      8.783  0.0000E+00  0.0000E+00  0.0000E+00
      8.877  0.1117E-16  0.2041E-04  0.2473E-05
      8.972  0.2211E-12  0.4042E+00  0.4896E-01
      9.066  0.2868E-01  0.4070E-01  0.1123E-01
      9.160  0.9342E-01  0.1384E+00  0.5117E-01
      9.255  0.0000E+00  0.0000E+00  0.0000E+00
      9.349  0.8487E-02  0.2643E-01  0.9695E-02
      9.443  0.1644E-17  0.5666E-08  0.1008E-08
      9.538  0.4438E-10  0.1530E+00  0.2722E-01
      9.632  0.5880E-27  0.2988E-15  0.3952E-16
      9.726  0.3904E-03  0.1743E+00  0.2374E-01
      9.821  0.1687E+00  0.3484E+00  0.1348E+00
      9.915  0.5280E-03  0.3801E-02  0.3509E-01
     10.009  0.7012E-08  0.1593E-05  0.6981E-06
     10.104  0.9064E-03  0.2014E+00  0.8824E-01
     10.198  0.3021E-01  0.2662E-02  0.1818E-01
     10.293  0.2339E-02  0.3099E+00  0.4787E-01
     10.387  0.2499E-01  0.2104E+00  0.2570E-01
     10.481  0.1155E-09  0.2116E+00  0.1064E+00
     10.576  0.1301E-11  0.6759E-02  0.1144E-02
     10.670  0.6375E-10  0.3251E+00  0.5504E-01
     10.764  0.3002E-01  0.1717E+00  0.9017E-01
     10.859  0.5718E-01  0.3646E+00  0.9384E-01
     10.953  0.0000E+00  0.0000E+00  0.0000E+00
     11.047  0.3484E-01  0.8268E-01  0.8965E-01
     11.142  0.0000E+00  0.0000E+00  0.0000E+00
     11.236  0.3982E-07  0.8740E-02  0.8288E-01
     11.330  0.8930E-01  0.1460E+00  0.1483E+00
     11.425  0.0000E+00  0.0000E+00  0.0000E+00
     11.519  0.0000E+00  0.0000E+00  0.0000E+00
     11.613  0.4859E-01  0.6627E-03  0.1082E-03
     11.708  0.2085E-01  0.2305E+00  0.1528E+00
     11.802  0.7214E-02  0.9048E-02  0.1130E-01
     11.897  0.2183E-02  0.1083E+00  0.5041E-01
     11.991  0.0000E+00  0.0000E+00  0.0000E+00
     12.085  0.8006E-01  0.3198E+00  0.6112E-01
     12.180  0.1004E+00  0.5447E-01  0.1771E-01
     12.274  0.2972E-09  0.1213E+00  0.7961E-02
     12.368  0.0000E+00  0.0000E+00  0.0000E+00
     12.463  0.5454E-06  0.2766E-05  0.4853E-01
     12.557  0.6178E-22  0.1239E-15  0.2453E-15
     12.651  0.1373E+00  0.2332E+00  0.2064E+00
     12.746  0.1245E+00  0.9407E-01  0.5523E-02
     12.840  0.0000E+00  0.0000E+00  0.0000E+00
     12.934  0.1283E+00  0.7882E-01  0.4558E-01
     13.029  0.0000E+00  0.0000E+00  0.0000E+00
     13.123  0.4245E-11  0.2140E-10  0.8780E-03
     13.217  0.3038E-02  0.2198E+00  0.7992E-01
     13.312  0.8992E-05  0.7815E-01  0.1536E-01
     13.406  0.2432E-04  0.2710E+00  0.1349E+00
     13.500  0.0000E+00  0.0000E+00  0.0000E+00
     13.595  0.1779E-10  0.3923E-05  0.1408E-05
     13.689  0.8475E-06  0.1869E+00  0.6709E-01
     13.784  0.6096E-10  0.1004E-04  0.7615E-05
     13.878  0.0000E+00  0.0000E+00  0.0000E+00
     13.972  0.0000E+00  0.0000E+00  0.0000E+00
     14.067  0.1527E-05  0.4162E-03  0.1171E-03
     14.161  0.5919E-03  0.1613E+00  0.4536E-01
     14.255  0.1875E-02  0.2289E+00  0.6816E-01
     14.350  0.2514E-02  0.5005E-01  0.2809E-01
     14.444  0.6514E-03  0.4510E-01  0.9626E-02
     14.538  0.9440E-01  0.9297E-01  0.2760E-01
     14.633  0.0000E+00  0.0000E+00  0.0000E+00
     14.727  0.0000E+00  0.0000E+00  0.0000E+00
     14.821  0.0000E+00  0.0000E+00  0.0000E+00
     14.916  0.0000E+00  0.0000E+00  0.0000E+00
     15.010  0.2839E-01  0.8142E-01  0.2633E-02
     15.104  0.1720E-17  0.4561E-17  0.1404E-18
     15.199  0.3099E-01  0.8216E-01  0.2530E-02
     15.293  0.0000E+00  0.0000E+00  0.0000E+00
     15.387  0.0000E+00  0.0000E+00  0.0000E+00
     15.482  0.0000E+00  0.0000E+00  0.0000E+00
     15.576  0.0000E+00  0.0000E+00  0.0000E+00
     15.671  0.0000E+00  0.0000E+00  0.0000E+00
     15.765  0.0000E+00  0.0000E+00  0.0000E+00
     15.859  0.0000E+00  0.0000E+00  0.0000E+00
     15.954  0.0000E+00  0.0000E+00  0.0000E+00
     16.048  0.0000E+00  0.0000E+00  0.0000E+00
     16.142  0.0000E+00  0.0000E+00  0.0000E+00
     16.237  0.0000E+00  0.0000E+00  0.0000E+00
     16.331  0.0000E+00  0.0000E+00  0.0000E+00
     16.425  0.0000E+00  0.0000E+00  0.0000E+00
     16.520  0.0000E+00  0.0000E+00  0.0000E+00
     16.614  0.0000E+00  0.0000E+00  0.0000E+00
     16.708  0.0000E+00  0.0000E+00  0.0000E+00
     16.70841266    -11.59693076  301      1.91887073      1.00000000
    -11.597  0.0000E+00  0.0000E+00  0.0000E+00
    -11.503  0.0000E+00  0.0000E+00  0.0000E+00
    -11.408  0.0000E+00  0.0000E+00  0.0000E+00
    -11.314  0.0000E+00  0.0000E+00  0.0000E+00
    -11.220  0.0000E+00  0.0000E+00  0.0000E+00
    -11.125  0.0000E+00  0.0000E+00  0.0000E+00
    -11.031  0.0000E+00  0.0000E+00  0.0000E+00
    -10.936  0.0000E+00  0.0000E+00  0.0000E+00
    -10.842  0.0000E+00  0.0000E+00  0.0000E+00
    -10.748  0.0000E+00  0.0000E+00  0.0000E+00
    -10.653  0.0000E+00  0.0000E+00  0.0000E+00
    -10.559  0.0000E+00  0.0000E+00  0.0000E+00
    -10.465  0.0000E+00  0.0000E+00  0.0000E+00
    -10.370  0.0000E+00  0.0000E+00  0.0000E+00
    -10.276  0.5455E-01  0.1081E-13  0.2816E-13
    -10.182  0.4808E+00  0.1244E-03  0.4401E-06
    -10.087  0.2724E-01  0.9329E-05  0.7510E-07
     -9.993  0.1708E+01  0.5237E-03  0.6475E-05
     -9.899  0.2366E+01  0.3620E-03  0.1091E-04
     -9.804  0.3747E+01  0.1379E-03  0.1964E-04
     -9.710  0.0000E+00  0.0000E+00  0.0000E+00
     -9.616  0.0000E+00  0.0000E+00  0.0000E+00
     -9.521  0.0000E+00  0.0000E+00  0.0000E+00
     -9.427  0.0000E+00  0.0000E+00  0.0000E+00
     -9.333  0.0000E+00  0.0000E+00  0.0000E+00
     -9.238  0.0000E+00  0.0000E+00  0.0000E+00
     -9.144  0.0000E+00  0.0000E+00  0.0000E+00
     -9.049  0.0000E+00  0.0000E+00  0.0000E+00
     -8.955  0.0000E+00  0.0000E+00  0.0000E+00
     -8.861  0.0000E+00  0.0000E+00  0.0000E+00
     -8.766  0.0000E+00  0.0000E+00  0.0000E+00
     -8.672  0.0000E+00  0.0000E+00  0.0000E+00
     -8.578  0.0000E+00  0.0000E+00  0.0000E+00
     -8.483  0.0000E+00  0.0000E+00  0.0000E+00
     -8.389  0.0000E+00  0.0000E+00  0.0000E+00
     -8.295  0.0000E+00  0.0000E+00  0.0000E+00
     -8.200  0.0000E+00  0.0000E+00  0.0000E+00
     -8.106  0.0000E+00  0.0000E+00  0.0000E+00
     -8.012  0.0000E+00  0.0000E+00  0.0000E+00
     -7.917  0.0000E+00  0.0000E+00  0.0000E+00
     -7.823  0.0000E+00  0.0000E+00  0.0000E+00
     -7.729  0.1554E-09  0.3030E-01  0.1129E-02
     -7.634  0.1795E-01  0.4037E+00  0.2788E-01
     -7.540  0.1606E-02  0.5581E-01  0.6193E-02
     -7.445  0.3043E-01  0.2296E-01  0.1745E-01
     -7.351  0.9438E-01  0.2125E-01  0.1707E-02
     -7.257  0.4227E-01  0.8616E-02  0.5712E-03
     -7.162  0.4522E-01  0.5061E-02  0.5397E-03
     -7.068  0.3537E+00  0.2753E-01  0.2162E-02
     -6.974  0.2802E+00  0.7363E-02  0.1802E-02
     -6.879  0.2980E+00  0.6935E-02  0.1224E-02
     -6.785  0.6709E+00  0.5489E-02  0.1490E-02
     -6.691  0.0000E+00  0.0000E+00  0.0000E+00
     -6.596  0.0000E+00  0.0000E+00  0.0000E+00
     -6.502  0.0000E+00  0.0000E+00  0.0000E+00
     -6.408  0.0000E+00  0.0000E+00  0.0000E+00
     -6.313  0.0000E+00  0.0000E+00  0.0000E+00
     -6.219  0.0000E+00  0.0000E+00  0.0000E+00
     -6.125  0.0000E+00  0.0000E+00  0.0000E+00
     -6.030  0.0000E+00  0.0000E+00  0.0000E+00
     -5.936  0.0000E+00  0.0000E+00  0.0000E+00
     -5.842  0.0000E+00  0.0000E+00  0.0000E+00
     -5.747  0.0000E+00  0.0000E+00  0.0000E+00
     -5.653  0.0000E+00  0.0000E+00  0.0000E+00
     -5.558  0.0000E+00  0.0000E+00  0.0000E+00
     -5.464  0.0000E+00  0.0000E+00  0.0000E+00
     -5.370  0.0000E+00  0.0000E+00  0.0000E+00
     -5.275  0.0000E+00  0.0000E+00  0.0000E+00
     -5.181  0.0000E+00  0.0000E+00  0.0000E+00
     -5.087  0.0000E+00  0.0000E+00  0.0000E+00
     -4.992  0.0000E+00  0.0000E+00  0.0000E+00
     -4.898  0.0000E+00  0.0000E+00  0.0000E+00
     -4.804  0.0000E+00  0.0000E+00  0.0000E+00
     -4.709  0.0000E+00  0.0000E+00  0.0000E+00
     -4.615  0.0000E+00  0.0000E+00  0.0000E+00
     -4.521  0.0000E+00  0.0000E+00  0.0000E+00
     -4.426  0.0000E+00  0.0000E+00  0.0000E+00
     -4.332  0.0000E+00  0.0000E+00  0.0000E+00
     -4.238  0.0000E+00  0.0000E+00  0.0000E+00
     -4.143  0.0000E+00  0.0000E+00  0.0000E+00
     -4.049  0.0000E+00  0.0000E+00  0.0000E+00
     -3.954  0.0000E+00  0.0000E+00  0.0000E+00
     -3.860  0.0000E+00  0.0000E+00  0.0000E+00
     -3.766  0.0000E+00  0.0000E+00  0.0000E+00
     -3.671  0.0000E+00  0.0000E+00  0.0000E+00
     -3.577  0.0000E+00  0.0000E+00  0.0000E+00
     -3.483  0.0000E+00  0.0000E+00  0.0000E+00
     -3.388  0.0000E+00  0.0000E+00  0.0000E+00
     -3.294  0.0000E+00  0.0000E+00  0.0000E+00
     -3.200  0.0000E+00  0.0000E+00  0.0000E+00