       N       E                     dE             d eps       ncg     rms          ort
DAV:   1     0.639668383978E+03    0.63967E+03   -0.43433E+04  2096   0.188E+03
DAV:   2     0.935815084971E+02   -0.54609E+03   -0.50653E+03  2096   0.630E+02
DAV:   3     0.309310218937E+02   -0.62650E+02   -0.58569E+02  2096   0.156E+02
DAV:   4     0.281186013861E+02   -0.28124E+01   -0.28069E+01  2096   0.323E+01
DAV:   5     0.280706074445E+02   -0.47994E-01   -0.47985E-01  2096   0.361E+00
SDA:   6    -0.549864567593E+01   -0.33569E+02   -0.47985E-01  2096   0.849E+00 0.000E+00
CGA:   7    -0.587067510624E+01   -0.37203E+00   -0.36969E+00  2096   0.196E+00 0.901E-02
CGA:   8    -0.598227399657E+01   -0.11160E+00   -0.10846E+00  2096   0.803E-01 0.105E-01
CGA:   9    -0.602114832760E+01   -0.38874E-01   -0.38492E-01  2096   0.109E-01 0.168E-02
CGA:  10    -0.602540539595E+01   -0.42571E-02   -0.42505E-02  2096   0.158E-02 0.399E-04
CGA:  11    -0.602610938801E+01   -0.70399E-03   -0.70398E-03  2096   0.388E-03-0.220E-06
CGA:  12    -0.602629555208E+01   -0.18616E-03   -0.18598E-03  2096   0.122E-03 0.800E-06
CGA:  13    -0.602635237893E+01   -0.56827E-04   -0.56800E-04  2096   0.268E-04 0.120E-06
CGA:  14    -0.602636299710E+01   -0.10618E-04   -0.10649E-04  2096   0.489E-05-0.259E-06
CGA:  15    -0.602636494496E+01   -0.19479E-05   -0.19561E-05  2096   0.126E-05-0.688E-07
CGA:  16    -0.602636546352E+01   -0.51856E-06   -0.51502E-06  2096   0.342E-06 0.278E-07
   1 F= -.60263655E+01 E0= -.60263655E+01  d E =-.602637E+01
