 vasp.5.3.5 31Mar14 (build Apr 15 2015 10:45:18) complex                        
  
 executed on             LinuxIFC date 2016.01.28  18:14:48
 running on   64 total cores
 distrk:  each k-point on    4 cores,   16 groups
 distr:  one band on NCORES_PER_BAND=   1 cores,    4 groups


--------------------------------------------------------------------------------------------------------


 INCAR:
 POTCAR:    PAW_PBE Cd 06Sep2000                  
 POTCAR:    PAW_PBE Te 08Apr2002                  

 ----------------------------------------------------------------------------- 
|                                                                             |
|           W    W    AA    RRRRR   N    N  II  N    N   GGGG   !!!           |
|           W    W   A  A   R    R  NN   N  II  NN   N  G    G  !!!           |
|           W    W  A    A  R    R  N N  N  II  N N  N  G       !!!           |
|           W WW W  AAAAAA  RRRRR   N  N N  II  N  N N  G  GGG   !            |
|           WW  WW  A    A  R   R   N   NN  II  N   NN  G    G                |
|           W    W  A    A  R    R  N    N  II  N    N   GGGG   !!!           |
|                                                                             |
|      For optimal performance we recommend to set                            |
|        NCORE= 4 - approx SQRT( number of cores)                             |
|      NCORE specifies how many cores store one orbital (NPAR=cpu/NCORE).     |
|      This setting can  greatly improve the performance of VASP for DFT.     |
|      The default, NPAR=number of cores might be grossly inefficient         |
|      on modern multi-core architectures or massively parallel machines.     |
|      Do your own testing !!!!                                               |
|      Unfortunately you need to use the default for GW and RPA calculations. |
|      (for HF NCORE is supported but not extensively tested yet)             |
|                                                                             |
 ----------------------------------------------------------------------------- 


 ----------------------------------------------------------------------------- 
|                                                                             |
|           W    W    AA    RRRRR   N    N  II  N    N   GGGG   !!!           |
|           W    W   A  A   R    R  NN   N  II  NN   N  G    G  !!!           |
|           W    W  A    A  R    R  N N  N  II  N N  N  G       !!!           |
|           W WW W  AAAAAA  RRRRR   N  N N  II  N  N N  G  GGG   !            |
|           WW  WW  A    A  R   R   N   NN  II  N   NN  G    G                |
|           W    W  A    A  R    R  N    N  II  N    N   GGGG   !!!           |
|                                                                             |
|      You have enabled k-point parallelism (KPAR>1).                         |
|      This developmental code was originally  written by Paul Kent at ORNL,  |
|      and carefully double checked in Vienna.                                |
|      GW as well as linear response parallelism added by Martijn Marsman     |
|      and Georg Kresse.                                                      |
|      Carefully verify results versus KPAR=1.                                |
|      Report problems to Paul Kent and Vienna.                               |
|                                                                             |
 ----------------------------------------------------------------------------- 


 ----------------------------------------------------------------------------- 
|                                                                             |
|           W    W    AA    RRRRR   N    N  II  N    N   GGGG   !!!           |
|           W    W   A  A   R    R  NN   N  II  NN   N  G    G  !!!           |
|           W    W  A    A  R    R  N N  N  II  N N  N  G       !!!           |
|           W WW W  AAAAAA  RRRRR   N  N N  II  N  N N  G  GGG   !            |
|           WW  WW  A    A  R   R   N   NN  II  N   NN  G    G                |
|           W    W  A    A  R    R  N    N  II  N    N   GGGG   !!!           |
|                                                                             |
|      You have selected ISYM=2 for HF type calculation. This will symmetrize |
|      the charge density but not the exchange potential.                     |
|      I suggest to use ISYM=3 instead. This uses symmetry to obtain          |
|      the orbitals at all k-points in the Brillouine zone, but does not      |
|      apply symmetry to the Hartree potential directly.                      |
|      The resultant charge might have lower symmetry than the crystal,       |
|      but at least, Hartree and exchange are fully compatible.               |
|                                                                             |
 ----------------------------------------------------------------------------- 

 POTCAR:    PAW_PBE Cd 06Sep2000                  
   VRHFIN =Cd : s2 d10                                                          
   LEXCH  = PE                                                                  
   EATOM  =  1293.1815 eV,   95.0462 Ry                                         
                                                                                
   TITEL  = PAW_PBE Cd 06Sep2000                                                
   LULTRA =        F    use ultrasoft PP ?                                      
   IUNSCR =        1    unscreen: 0-lin 1-nonlin 2-no                           
   RPACOR =    2.000    partial core radius                                     
   POMASS =  112.411; ZVAL   =   12.000    mass and valenz                      
   RCORE  =    2.300    outmost cutoff radius                                   
   RWIGS  =    2.980; RWIGS  =    1.577    wigner-seitz radius (au A)           
   ENMAX  =  274.336; ENMIN  =  205.752 eV                                      
   RCLOC  =    2.054    cutoff for local pot                                    
   LCOR   =        T    correct aug charges                                     
   LPAW   =        T    paw PP                                                  
   EAUG   =  456.106                                                            
   DEXC   =    0.000                                                            
   RMAX   =    2.358    core radius for proj-oper                               
   RAUG   =    1.300    factor for augmentation sphere                          
   RDEP   =    2.450    radius for radial grids                                 
   RDEPT  =    1.955    core radius for aug-charge                              
                                                                                
   Atomic configuration                                                         
   12 entries                                                                   
     n  l   j            E        occ.                                          
     1  0  0.50    -26519.7817   2.0000                                         
     2  0  0.50     -3936.9612   2.0000                                         
     2  1  1.50     -3532.2230   6.0000                                         
     3  0  0.50      -733.7908   2.0000                                         
     3  1  1.50      -601.0792   6.0000                                         
     3  2  2.50      -393.5307  10.0000                                         
     4  0  0.50      -105.8977   2.0000                                         
     4  1  1.50       -66.9488   6.0000                                         
     4  2  2.50       -11.7331  10.0000                                         
     5  0  0.50        -5.6592   2.0000                                         
     5  1  0.50        -1.3606   0.0000                                         
     4  3  2.50        -1.3606   0.0000                                         
   Description                                                                  
     l       E           TYP  RCUT    TYP  RCUT                                 
     2    -11.7331479     23  2.300                                             
     2    -13.0937305     23  2.300                                             
     0     -5.6591502     23  2.300                                             
     0     -1.5561433     23  2.300                                             
     1     -2.7211652     23  2.300                                             
     1      8.3548275     23  2.300                                             
  local pseudopotential read in
  partial core-charges read in
  partial kinetic energy density read in
  atomic valenz-charges read in
  non local Contribution for L=           2  read in
    real space projection operators read in
  non local Contribution for L=           2  read in
    real space projection operators read in
  non local Contribution for L=           0  read in
    real space projection operators read in
  non local Contribution for L=           0  read in
    real space projection operators read in
  non local Contribution for L=           1  read in
    real space projection operators read in
  non local Contribution for L=           1  read in
    real space projection operators read in
    PAW grid and wavefunctions read in
 
   number of l-projection  operators is LMAX  =           6
   number of lm-projection operators is LMMAX =          18
 
 POTCAR:    PAW_PBE Te 08Apr2002                  
   VRHFIN =Te: s2p4                                                             
   LEXCH  = PE                                                                  
   EATOM  =   223.2721 eV,   16.4100 Ry                                         
                                                                                
   TITEL  = PAW_PBE Te 08Apr2002                                                
   LULTRA =        F    use ultrasoft PP ?                                      
   IUNSCR =        1    unscreen: 0-lin 1-nonlin 2-no                           
   RPACOR =    2.200    partial core radius                                     
   POMASS =  127.600; ZVAL   =    6.000    mass and valenz                      
   RCORE  =    2.300    outmost cutoff radius                                   
   RWIGS  =    2.900; RWIGS  =    1.535    wigner-seitz radius (au A)           
   ENMAX  =  174.982; ENMIN  =  131.236 eV                                      
   ICORE  =        3    local potential                                         
   LCOR   =        T    correct aug charges                                     
   LPAW   =        T    paw PP                                                  
   EAUG   =  368.792                                                            
   DEXC   =    0.000                                                            
   RMAX   =    2.345    core radius for proj-oper                               
   RAUG   =    1.300    factor for augmentation sphere                          
   RDEP   =    2.397    radius for radial grids                                 
   RDEPT  =    2.174    core radius for aug-charge                              
                                                                                
   Atomic configuration                                                         
   13 entries                                                                   
     n  l   j            E        occ.                                          
     1  0  0.50    -31621.2075   2.0000                                         
     2  0  0.50     -4848.7941   2.0000                                         
     2  1  1.50     -4352.1960   6.0000                                         
     3  0  0.50      -964.9612   2.0000                                         
     3  1  1.50      -803.6179   6.0000                                         
     3  2  2.50      -559.8710  10.0000                                         
     4  0  0.50      -164.3522   2.0000                                         
     4  1  1.50      -114.3756   6.0000                                         
     4  2  2.50       -41.6483  10.0000                                         
     5  0  0.50       -15.1072   2.0000                                         
     5  1  0.50        -5.9526   4.0000                                         
     5  2  1.50        -5.4423   0.0000                                         
     4  3  2.50        -5.4423   0.0000                                         
   Description                                                                  
     l       E           TYP  RCUT    TYP  RCUT                                 
     0    -15.1072389     23  2.300                                             
     0    -16.4678215     23  2.300                                             
     1     -5.9526306     23  2.300                                             
     1     -2.4873968     23  2.300                                             
     2     -5.4423304     23  2.300                                             
     3     -1.3605826     23  2.300                                             
  local pseudopotential read in
  partial core-charges read in
  partial kinetic energy density read in
  atomic valenz-charges read in
  non local Contribution for L=           0  read in
    real space projection operators read in
  non local Contribution for L=           0  read in
    real space projection operators read in
  non local Contribution for L=           1  read in
    real space projection operators read in
  non local Contribution for L=           1  read in
    real space projection operators read in
  non local Contribution for L=           2  read in
    real space projection operators read in
    PAW grid and wavefunctions read in
 
   number of l-projection  operators is LMAX  =           5
   number of lm-projection operators is LMMAX =          13
 
  PAW_PBE Cd 06Sep2000                  :
 energy of atom  1       EATOM=-1293.1815
 kinetic energy error for atom=    0.0063 (will be added to EATOM!!)
  PAW_PBE Te 08Apr2002                  :
 energy of atom  2       EATOM= -223.2721
 kinetic energy error for atom=    0.0007 (will be added to EATOM!!)
 
 
 POSCAR: CdTe (ICSD, 295K, Rabadanov 2001)       
  positions in direct lattice
  velocities in cartesian coordinates
 exchange correlation table for  LEXCH =        8
   RHO(1)=    0.500       N(1)  =     2000
   RHO(2)=  100.500       N(2)  =     4000
 


--------------------------------------------------------------------------------------------------------


 ion  position               nearest neighbor table
   1  0.000  0.000  0.000-   2 2.81   2 2.81   2 2.81   2 2.81
   2  0.250  0.250  0.250-   1 2.81   1 2.81   1 2.81   1 2.81
 
  LATTYP: Found a face centered cubic cell.
 ALAT       =     6.4827000000
  
  Lattice vectors:
  
 A1 = (   3.2413500000,   3.2413500000,   0.0000000000)
 A2 = (   3.2413500000,   0.0000000000,  -3.2413500000)
 A3 = (   0.0000000000,   3.2413500000,  -3.2413500000)


Analysis of symmetry for initial positions (statically):
=====================================================================
 Subroutine PRICEL returns:
 Original cell was already a primitive cell.
 

 Routine SETGRP: Setting up the symmetry group for a 
 face centered cubic supercell.


 Subroutine GETGRP returns: Found 24 space group operations
 (whereof 24 operations were pure point group operations)
 out of a pool of 48 trial point group operations.


The static configuration has the point symmetry T_d .


Analysis of symmetry for dynamics (positions and initial velocities):
=====================================================================
 Subroutine PRICEL returns:
 Original cell was already a primitive cell.
 

 Routine SETGRP: Setting up the symmetry group for a 
 face centered cubic supercell.


 Subroutine GETGRP returns: Found 24 space group operations
 (whereof 24 operations were pure point group operations)
 out of a pool of 48 trial point group operations.


The dynamic configuration has the point symmetry T_d .
 
 
 KPOINTS: Automatically generated mesh            
  k-points in reciprocal lattice
Space group operators:
 irot       det(A)        alpha          n_x          n_y          n_z        tau_x        tau_y        tau_z
    1     1.000000     0.000000     1.000000     0.000000     0.000000     0.000000     0.000000     0.000000
    2     1.000000   120.000000    -0.577350    -0.577350     0.577350     0.000000     0.000000     0.000000
    3     1.000000   120.000000     0.577350     0.577350    -0.577350     0.000000     0.000000     0.000000
    4    -1.000000    90.000000    -1.000000     0.000000     0.000000     0.000000     0.000000     0.000000
    5    -1.000000   180.000000     0.707107     0.707107     0.000000     0.000000     0.000000     0.000000
    6    -1.000000    90.000000     0.000000     1.000000     0.000000     0.000000     0.000000     0.000000
    7     1.000000   180.000000     1.000000     0.000000     0.000000     0.000000     0.000000     0.000000
    8     1.000000   120.000000     0.577350     0.577350     0.577350     0.000000     0.000000     0.000000
    9     1.000000   120.000000    -0.577350     0.577350     0.577350     0.000000     0.000000     0.000000
   10    -1.000000    90.000000     1.000000     0.000000     0.000000     0.000000     0.000000     0.000000
   11    -1.000000    90.000000     0.000000     0.000000     1.000000     0.000000     0.000000     0.000000
   12    -1.000000   180.000000     0.707107     0.000000    -0.707107     0.000000     0.000000     0.000000
   13     1.000000   120.000000     0.577350    -0.577350    -0.577350     0.000000     0.000000     0.000000
   14     1.000000   120.000000     0.577350    -0.577350     0.577350     0.000000     0.000000     0.000000
   15     1.000000   180.000000     0.000000     0.000000     1.000000     0.000000     0.000000     0.000000
   16    -1.000000    90.000000     0.000000    -1.000000     0.000000     0.000000     0.000000     0.000000
   17    -1.000000   180.000000     0.000000    -0.707107     0.707107     0.000000     0.000000     0.000000
   18    -1.000000    90.000000     0.000000     0.000000    -1.000000     0.000000     0.000000     0.000000
   19     1.000000   120.000000    -0.577350    -0.577350    -0.577350     0.000000     0.000000     0.000000
   20     1.000000   180.000000     0.000000     1.000000     0.000000     0.000000     0.000000     0.000000
   21     1.000000   120.000000    -0.577350     0.577350    -0.577350     0.000000     0.000000     0.000000
   22    -1.000000   180.000000     0.707107    -0.707107     0.000000     0.000000     0.000000     0.000000
   23    -1.000000   180.000000     0.000000     0.707107     0.707107     0.000000     0.000000     0.000000
   24    -1.000000   180.000000     0.707107     0.000000     0.707107     0.000000     0.000000     0.000000

 ----------------------------------------------------------------------------- 
|                                                                             |
|           W    W    AA    RRRRR   N    N  II  N    N   GGGG   !!!           |
|           W    W   A  A   R    R  NN   N  II  NN   N  G    G  !!!           |
|           W    W  A    A  R    R  N N  N  II  N N  N  G       !!!           |
|           W WW W  AAAAAA  RRRRR   N  N N  II  N  N N  G  GGG   !            |
|           WW  WW  A    A  R   R   N   NN  II  N   NN  G    G                |
|           W    W  A    A  R    R  N    N  II  N    N   GGGG   !!!           |
|                                                                             |
|      Your generating k-point grid is not commensurate to the symmetry       |
|      of the lattice.  This can cause   slow convergence with respect        |
|      to k-points for HF type calculations                                   |
|      suggested SOLUTIONS:                                                   |
|       ) if not already the case, use automatic k-point generation           |
|       ) shift your grid to Gamma (G) (e.g. required for hex or fcc lattice) |
|                                                                             |
 ----------------------------------------------------------------------------- 

 
 Subroutine IBZKPT_HF returns following result:
 ==============================================
 
 Found    331 k-points in 1st BZ
 the following    331 k-points will be used (e.g. in the exchange kernel)
 Following reciprocal coordinates:   # in IRBZ
  0.000000  0.000000  0.000000       1 t-inv F
  0.166667  0.000000  0.000000       2 t-inv F
  0.333333  0.000000  0.000000       3 t-inv F
  0.500000  0.000000  0.000000       4 t-inv F
  0.166667  0.166667  0.000000       5 t-inv F
  0.333333  0.166667  0.000000       6 t-inv F
  0.500000  0.166667  0.000000       7 t-inv F
 -0.333333  0.166667  0.000000       8 t-inv F
 -0.166667  0.166667  0.000000       9 t-inv F
  0.333333  0.333333  0.000000      10 t-inv F
  0.500000  0.333333  0.000000      11 t-inv F
 -0.333333  0.333333  0.000000      12 t-inv F
  0.500000  0.500000  0.000000      13 t-inv F
  0.500000  0.333333  0.166667      14 t-inv F
 -0.333333  0.333333  0.166667      15 t-inv F
 -0.333333  0.500000  0.166667      16 t-inv F
  0.000000  0.000000  0.000000      17 t-inv F
  0.025000  0.000000  0.025000      18 t-inv F
  0.050000  0.000000  0.050000      19 t-inv F
  0.075000  0.000000  0.075000      20 t-inv F
  0.100000  0.000000  0.100000      21 t-inv F
  0.125000  0.000000  0.125000      22 t-inv F
  0.150000  0.000000  0.150000      23 t-inv F
  0.175000  0.000000  0.175000      24 t-inv F
  0.200000  0.000000  0.200000      25 t-inv F
  0.225000  0.000000  0.225000      26 t-inv F
  0.250000  0.000000  0.250000      27 t-inv F
  0.275000  0.000000  0.275000      28 t-inv F
  0.300000  0.000000  0.300000      29 t-inv F
  0.325000  0.000000  0.325000      30 t-inv F
  0.350000  0.000000  0.350000      31 t-inv F
  0.375000  0.000000  0.375000      32 t-inv F
  0.400000  0.000000  0.400000      33 t-inv F
  0.425000  0.000000  0.425000      34 t-inv F
  0.450000  0.000000  0.450000      35 t-inv F
  0.475000  0.000000  0.475000      36 t-inv F
  0.500000  0.000000  0.500000      37 t-inv F
  0.500000  0.025000  0.525000      38 t-inv F
  0.500000  0.050000  0.550000      39 t-inv F
  0.500000  0.075000  0.575000      40 t-inv F
  0.500000  0.100000  0.600000      41 t-inv F
  0.500000  0.125000  0.625000      42 t-inv F
  0.500000  0.150000  0.650000      43 t-inv F
  0.500000  0.175000  0.675000      44 t-inv F
  0.500000  0.200000  0.700000      45 t-inv F
  0.500000  0.225000  0.725000      46 t-inv F
  0.500000  0.250000  0.750000      47 t-inv F
  0.475000  0.275000  0.750000      48 t-inv F
  0.450000  0.300000  0.750000      49 t-inv F
  0.425000  0.325000  0.750000      50 t-inv F
  0.400000  0.350000  0.750000      51 t-inv F
  0.375000  0.375000  0.750000      52 t-inv F
  0.360000  0.360000  0.720000      53 t-inv F
  0.345000  0.345000  0.690000      54 t-inv F
  0.330000  0.330000  0.660000      55 t-inv F
  0.315000  0.315000  0.630000      56 t-inv F
  0.300000  0.300000  0.600000      57 t-inv F
  0.285000  0.285000  0.570000      58 t-inv F
  0.270000  0.270000  0.540000      59 t-inv F
  0.255000  0.255000  0.510000      60 t-inv F
  0.240000  0.240000  0.480000      61 t-inv F
  0.225000  0.225000  0.450000      62 t-inv F
  0.210000  0.210000  0.420000      63 t-inv F
  0.195000  0.195000  0.390000      64 t-inv F
  0.180000  0.180000  0.360000      65 t-inv F
  0.165000  0.165000  0.330000      66 t-inv F
  0.150000  0.150000  0.300000      67 t-inv F
  0.135000  0.135000  0.270000      68 t-inv F
  0.120000  0.120000  0.240000      69 t-inv F
  0.105000  0.105000  0.210000      70 t-inv F
  0.090000  0.090000  0.180000      71 t-inv F
  0.075000  0.075000  0.150000      72 t-inv F
  0.060000  0.060000  0.120000      73 t-inv F
  0.045000  0.045000  0.090000      74 t-inv F
  0.030000  0.030000  0.060000      75 t-inv F
  0.015000  0.015000  0.030000      76 t-inv F
  0.000000  0.000000  0.000000      77 t-inv F
  0.020833  0.020833  0.020833      78 t-inv F
  0.041667  0.041667  0.041667      79 t-inv F
  0.062500  0.062500  0.062500      80 t-inv F
  0.083333  0.083333  0.083333      81 t-inv F
  0.104167  0.104167  0.104167      82 t-inv F
  0.125000  0.125000  0.125000      83 t-inv F
  0.145833  0.145833  0.145833      84 t-inv F
  0.166667  0.166667  0.166667      85 t-inv F
  0.187500  0.187500  0.187500      86 t-inv F
  0.208333  0.208333  0.208333      87 t-inv F
  0.229167  0.229167  0.229167      88 t-inv F
  0.250000  0.250000  0.250000      89 t-inv F
  0.270833  0.270833  0.270833      90 t-inv F
  0.291667  0.291667  0.291667      91 t-inv F
  0.312500  0.312500  0.312500      92 t-inv F
  0.333333  0.333333  0.333333      93 t-inv F
  0.354167  0.354167  0.354167      94 t-inv F
  0.375000  0.375000  0.375000      95 t-inv F
  0.395833  0.395833  0.395833      96 t-inv F
  0.416667  0.416667  0.416667      97 t-inv F
  0.437500  0.437500  0.437500      98 t-inv F
  0.458333  0.458333  0.458333      99 t-inv F
  0.479167  0.479167  0.479167     100 t-inv F
  0.500000  0.500000  0.500000     101 t-inv F
  0.515625  0.468750  0.515625     102 t-inv F
  0.531250  0.437500  0.531250     103 t-inv F
  0.546875  0.406250  0.546875     104 t-inv F
  0.562500  0.375000  0.562500     105 t-inv F
  0.578125  0.343750  0.578125     106 t-inv F
  0.593750  0.312500  0.593750     107 t-inv F
  0.609375  0.281250  0.609375     108 t-inv F
  0.625000  0.250000  0.625000     109 t-inv F
  0.600000  0.250000  0.650000     110 t-inv F
  0.575000  0.250000  0.675000     111 t-inv F
  0.550000  0.250000  0.700000     112 t-inv F
  0.525000  0.250000  0.725000     113 t-inv F
  0.500000  0.250000  0.750000     114 t-inv F
  0.500000  0.275000  0.725000     115 t-inv F
  0.500000  0.300000  0.700000     116 t-inv F
  0.500000  0.325000  0.675000     117 t-inv F
  0.500000  0.350000  0.650000     118 t-inv F
  0.500000  0.375000  0.625000     119 t-inv F
  0.500000  0.400000  0.600000     120 t-inv F
  0.500000  0.425000  0.575000     121 t-inv F
  0.500000  0.450000  0.550000     122 t-inv F
  0.500000  0.475000  0.525000     123 t-inv F
  0.500000  0.500000  0.500000     124 t-inv F
  0.484375  0.484375  0.531250     125 t-inv F
  0.468750  0.468750  0.562500     126 t-inv F
  0.453125  0.453125  0.593750     127 t-inv F
  0.437500  0.437500  0.625000     128 t-inv F
  0.421875  0.421875  0.656250     129 t-inv F
  0.406250  0.406250  0.687500     130 t-inv F
  0.390625  0.390625  0.718750     131 t-inv F
  0.000000  0.166667  0.000000       2 t-inv F
  0.000000  0.000000  0.166667       2 t-inv F
 -0.166667 -0.166667 -0.166667       2 t-inv F
  0.000000  0.333333  0.000000       3 t-inv F
  0.000000  0.000000  0.333333       3 t-inv F
 -0.333333 -0.333333 -0.333333       3 t-inv F
  0.000000  0.500000  0.000000       4 t-inv F
  0.000000  0.000000  0.500000       4 t-inv F
 -0.500000 -0.500000 -0.500000       4 t-inv F
  0.000000  0.166667  0.166667       5 t-inv F
  0.166667  0.000000  0.166667       5 t-inv F
 -0.166667 -0.166667  0.000000       5 t-inv F
 -0.166667  0.000000 -0.166667       5 t-inv F
  0.000000 -0.166667 -0.166667       5 t-inv F
  0.000000  0.333333  0.166667       6 t-inv F
  0.166667  0.000000  0.333333       6 t-inv F
 -0.166667 -0.166667  0.166667       6 t-inv F
 -0.333333 -0.166667 -0.333333       6 t-inv F
  0.166667  0.333333  0.000000       6 t-inv F
  0.166667 -0.166667 -0.166667       6 t-inv F
 -0.333333 -0.333333 -0.166667       6 t-inv F
  0.000000  0.166667  0.333333       6 t-inv F
 -0.166667  0.166667 -0.166667       6 t-inv F
 -0.166667 -0.333333 -0.333333       6 t-inv F
  0.333333  0.000000  0.166667       6 t-inv F
  0.000000  0.500000  0.166667       7 t-inv F
  0.166667  0.000000  0.500000       7 t-inv F
 -0.166667 -0.166667  0.333333       7 t-inv F
 -0.500000 -0.333333 -0.500000       7 t-inv F
  0.166667  0.500000  0.000000       7 t-inv F
  0.333333 -0.166667 -0.166667       7 t-inv F
 -0.500000 -0.500000 -0.333333       7 t-inv F
  0.000000  0.166667  0.500000       7 t-inv F
 -0.166667  0.333333 -0.166667       7 t-inv F
 -0.333333 -0.500000 -0.500000       7 t-inv F
  0.500000  0.000000  0.166667       7 t-inv F
  0.000000 -0.333333  0.166667       8 t-inv F
  0.166667  0.000000 -0.333333       8 t-inv F
 -0.166667 -0.166667 -0.500000       8 t-inv F
  0.333333  0.500000  0.333333       8 t-inv F
  0.166667 -0.333333  0.000000       8 t-inv F
 -0.500000 -0.166667 -0.166667       8 t-inv F
  0.333333  0.333333  0.500000       8 t-inv F
  0.000000  0.166667 -0.333333       8 t-inv F
 -0.166667 -0.500000 -0.166667       8 t-inv F
  0.500000  0.333333  0.333333       8 t-inv F
 -0.333333  0.000000  0.166667       8 t-inv F
  0.000000 -0.166667  0.166667       9 t-inv F
  0.166667  0.000000 -0.166667       9 t-inv F
 -0.166667 -0.166667 -0.333333       9 t-inv F
  0.166667  0.333333  0.166667       9 t-inv F
  0.166667 -0.166667  0.000000       9 t-inv F
 -0.333333 -0.166667 -0.166667       9 t-inv F
  0.166667  0.166667  0.333333       9 t-inv F
  0.000000  0.166667 -0.166667       9 t-inv F
 -0.166667 -0.333333 -0.166667       9 t-inv F
  0.333333  0.166667  0.166667       9 t-inv F
 -0.166667  0.000000  0.166667       9 t-inv F
  0.000000  0.333333  0.333333      10 t-inv F
  0.333333  0.000000  0.333333      10 t-inv F
 -0.333333 -0.333333  0.000000      10 t-inv F
 -0.333333  0.000000 -0.333333      10 t-inv F
  0.000000 -0.333333 -0.333333      10 t-inv F
  0.000000  0.500000  0.333333      11 t-inv F
  0.333333  0.000000  0.500000      11 t-inv F
 -0.333333 -0.333333  0.166667      11 t-inv F
 -0.500000 -0.166667 -0.500000      11 t-inv F
  0.333333  0.500000  0.000000      11 t-inv F
  0.166667 -0.333333 -0.333333      11 t-inv F
 -0.500000 -0.500000 -0.166667      11 t-inv F
  0.000000  0.333333  0.500000      11 t-inv F
 -0.333333  0.166667 -0.333333      11 t-inv F
 -0.166667 -0.500000 -0.500000      11 t-inv F
  0.500000  0.000000  0.333333      11 t-inv F
  0.000000 -0.333333  0.333333      12 t-inv F
  0.333333  0.000000 -0.333333      12 t-inv F
 -0.333333 -0.333333 -0.666667      12 t-inv F
  0.333333  0.666667  0.333333      12 t-inv F
  0.333333 -0.333333  0.000000      12 t-inv F
 -0.666667 -0.333333 -0.333333      12 t-inv F
  0.333333  0.333333  0.666667      12 t-inv F
  0.000000  0.333333 -0.333333      12 t-inv F
 -0.333333 -0.666667 -0.333333      12 t-inv F
  0.666667  0.333333  0.333333      12 t-inv F
 -0.333333  0.000000  0.333333      12 t-inv F
  0.000000  0.500000  0.500000      13 t-inv F
  0.500000  0.000000  0.500000      13 t-inv F
  0.166667  0.500000  0.333333      14 t-inv F
  0.333333  0.166667  0.500000      14 t-inv F
 -0.333333 -0.166667  0.166667      14 t-inv F
 -0.500000 -0.166667 -0.333333      14 t-inv F
 -0.166667  0.333333  0.166667      14 t-inv F
  0.166667  0.333333 -0.166667      14 t-inv F
  0.166667 -0.166667 -0.333333      14 t-inv F
 -0.333333 -0.166667 -0.500000      14 t-inv F
 -0.333333 -0.500000 -0.166667      14 t-inv F
  0.166667 -0.166667  0.333333      14 t-inv F
  0.166667 -0.333333 -0.166667      14 t-inv F
 -0.166667  0.166667  0.333333      14 t-inv F
 -0.333333  0.166667 -0.166667      14 t-inv F
 -0.500000 -0.333333 -0.166667      14 t-inv F
 -0.166667 -0.333333 -0.500000      14 t-inv F
  0.333333  0.166667 -0.166667      14 t-inv F
 -0.166667  0.166667 -0.333333      14 t-inv F
  0.333333 -0.166667  0.166667      14 t-inv F
 -0.166667 -0.333333  0.166667      14 t-inv F
 -0.166667 -0.500000 -0.333333      14 t-inv F
  0.500000  0.166667  0.333333      14 t-inv F
  0.333333  0.500000  0.166667      14 t-inv F
  0.166667  0.333333  0.500000      14 t-inv F
  0.166667 -0.333333  0.333333      15 t-inv F
  0.333333  0.166667 -0.333333      15 t-inv F
 -0.333333 -0.166667 -0.666667      15 t-inv F
  0.333333  0.666667  0.500000      15 t-inv F
 -0.166667 -0.500000  0.166667      15 t-inv F
  0.166667 -0.500000 -0.166667      15 t-inv F
 -0.666667 -0.166667 -0.333333      15 t-inv F
  0.500000  0.666667  0.333333      15 t-inv F
  0.500000  0.333333  0.666667      15 t-inv F
  0.166667 -0.166667 -0.500000      15 t-inv F
 -0.666667 -0.333333 -0.166667      15 t-inv F
 -0.166667  0.166667 -0.500000      15 t-inv F
 -0.333333 -0.666667 -0.166667      15 t-inv F
  0.333333  0.500000  0.666667      15 t-inv F
  0.666667  0.500000  0.333333      15 t-inv F
 -0.500000  0.166667 -0.166667      15 t-inv F
 -0.166667 -0.666667 -0.333333      15 t-inv F
 -0.500000 -0.166667  0.166667      15 t-inv F
 -0.166667 -0.333333 -0.666667      15 t-inv F
  0.666667  0.333333  0.500000      15 t-inv F
 -0.333333  0.166667  0.333333      15 t-inv F
  0.333333 -0.333333  0.166667      15 t-inv F
  0.166667  0.333333 -0.333333      15 t-inv F
  0.166667 -0.333333  0.500000      16 t-inv F
  0.500000  0.166667 -0.333333      16 t-inv F
 -0.500000 -0.333333 -0.833333      16 t-inv F
  0.333333  0.833333  0.500000      16 t-inv F
 -0.166667 -0.500000  0.333333      16 t-inv F
  0.333333 -0.500000 -0.166667      16 t-inv F
  0.500000  0.833333  0.333333      16 t-inv F
  0.500000  0.333333  0.833333      16 t-inv F
 -0.833333 -0.500000 -0.333333      16 t-inv F
 -0.166667  0.333333 -0.500000      16 t-inv F
 -0.333333 -0.833333 -0.500000      16 t-inv F
 -0.166667  0.000000  0.000000       2 t-inv T
  0.000000 -0.166667  0.000000       2 t-inv T
  0.000000  0.000000 -0.166667       2 t-inv T
  0.166667  0.166667  0.166667       2 t-inv T
 -0.333333  0.000000  0.000000       3 t-inv T
  0.000000 -0.333333  0.000000       3 t-inv T
  0.000000  0.000000 -0.333333       3 t-inv T
  0.333333  0.333333  0.333333       3 t-inv T
 -0.333333 -0.166667  0.000000       6 t-inv T
  0.000000 -0.333333 -0.166667       6 t-inv T
 -0.166667  0.000000 -0.333333       6 t-inv T
  0.166667  0.166667 -0.166667       6 t-inv T
  0.333333  0.166667  0.333333       6 t-inv T
 -0.166667 -0.333333  0.000000       6 t-inv T
 -0.166667  0.166667  0.166667       6 t-inv T
  0.333333  0.333333  0.166667       6 t-inv T
  0.000000 -0.166667 -0.333333       6 t-inv T
  0.166667 -0.166667  0.166667       6 t-inv T
  0.166667  0.333333  0.333333       6 t-inv T
 -0.333333  0.000000 -0.166667       6 t-inv T
 -0.500000 -0.166667  0.000000       7 t-inv T
  0.000000 -0.500000 -0.166667       7 t-inv T
 -0.166667  0.000000 -0.500000       7 t-inv T
  0.166667  0.166667 -0.333333       7 t-inv T
  0.500000  0.333333  0.500000       7 t-inv T
 -0.166667 -0.500000  0.000000       7 t-inv T
 -0.333333  0.166667  0.166667       7 t-inv T
  0.500000  0.500000  0.333333       7 t-inv T
  0.000000 -0.166667 -0.500000       7 t-inv T
  0.166667 -0.333333  0.166667       7 t-inv T
  0.333333  0.500000  0.500000       7 t-inv T
 -0.500000  0.000000 -0.166667       7 t-inv T
  0.333333 -0.166667  0.000000       8 t-inv T
  0.000000  0.333333 -0.166667       8 t-inv T
 -0.166667  0.000000  0.333333       8 t-inv T
  0.166667  0.166667  0.500000       8 t-inv T
 -0.333333 -0.500000 -0.333333       8 t-inv T
 -0.166667  0.333333  0.000000       8 t-inv T
  0.500000  0.166667  0.166667       8 t-inv T
 -0.333333 -0.333333 -0.500000       8 t-inv T
  0.000000 -0.166667  0.333333       8 t-inv T
  0.166667  0.500000  0.166667       8 t-inv T
 -0.500000 -0.333333 -0.333333       8 t-inv T
  0.333333  0.000000 -0.166667       8 t-inv T
 -0.500000 -0.333333  0.000000      11 t-inv T
  0.000000 -0.500000 -0.333333      11 t-inv T
 -0.333333  0.000000 -0.500000      11 t-inv T
  0.333333  0.333333 -0.166667      11 t-inv T
  0.500000  0.166667  0.500000      11 t-inv T
 -0.333333 -0.500000  0.000000      11 t-inv T
 -0.166667  0.333333  0.333333      11 t-inv T
  0.500000  0.500000  0.166667      11 t-inv T
  0.000000 -0.333333 -0.500000      11 t-inv T
  0.333333 -0.166667  0.333333      11 t-inv T
  0.166667  0.500000  0.500000      11 t-inv T
 -0.500000  0.000000 -0.333333      11 t-inv T


--------------------------------------------------------------------------------------------------------




 Dimension of arrays:
   k-points           NKPTS =    131   k-points in BZ     NKDIM =    331   number of bands    NBANDS=     16
   number of dos      NEDOS =    301   number of ions     NIONS =      2
   non local maximal  LDIM  =      6   non local SUM 2l+1 LMDIM =     18
   total plane-waves  NPLWV =  46656
   max r-space proj   IRMAX =      1   max aug-charges    IRDMAX=  40037
   dimension x,y,z NGX =    36 NGY =   36 NGZ =   36
   dimension x,y,z NGXF=    72 NGYF=   72 NGZF=   72
   support grid    NGXF=    72 NGYF=   72 NGZF=   72
   ions per type =               1   1
 NGX,Y,Z   is equivalent  to a cutoff of  13.06, 13.06, 13.06 a.u.
 NGXF,Y,Z  is equivalent  to a cutoff of  26.11, 26.11, 26.11 a.u.


 I would recommend the setting:
   dimension x,y,z NGX =    33 NGY =   33 NGZ =   33
 SYSTEM =  Name                                    
 POSCAR =  CdTe (ICSD, 295K, Rabadanov 2001)       

 Startparameter for this run:
   NWRITE =      2    write-flag & timer
   PREC   = accura    normal or accurate (medium, high low for compatibility)
   ISTART =      0    job   : 0-new  1-cont  2-samecut
   ICHARG =     11    charge: 1-file 2-atom 10-const
   ISPIN  =      1    spin polarized calculation?
   LNONCOLLINEAR =      F non collinear calculations
   LSORBIT =      F    spin-orbit coupling
   INIWAV =      1    electr: 0-lowe 1-rand  2-diag
   LASPH  =      F    aspherical Exc in radial PAW
   METAGGA=      F    non-selfconsistent MetaGGA calc.

 Electronic Relaxation 1
   ENCUT  =  500.0 eV  36.75 Ry    6.06 a.u.   8.36  8.36  8.36*2*pi/ulx,y,z
   ENINI  =  500.0     initial cutoff
   ENAUG  =  456.1 eV  augmentation charge cutoff
   NELM   =     60;   NELMIN=  2; NELMDL=  0     # of ELM steps 
   EDIFF  = 0.1E-05   stopping-criterion for ELM
   LREAL  =      F    real-space projection
   NLSPLINE    = F    spline interpolate recip. space projectors
   LCOMPAT=      F    compatible to vasp.4.4
   GGA_COMPAT  = T    GGA compatible to vasp.4.4-vasp.4.6
   LMAXPAW     = -100 max onsite density
   LMAXMIX     =    2 max onsite mixed and CHGCAR
   VOSKOWN=      0    Vosko Wilk Nusair interpolation
   ROPT   =    0.00000   0.00000
 Ionic relaxation
   EDIFFG = -.5E-02   stopping-criterion for IOM
   NSW    =      1    number of steps for IOM
   NBLOCK =      1;   KBLOCK =      1    inner block; outer block 
   IBRION =      2    ionic relax: 0-MD 1-quasi-New 2-CG
   NFREE  =      1    steps in history (QN), initial steepest desc. (CG)
   ISIF   =      3    stress and relaxation
   IWAVPR =     11    prediction:  0-non 1-charg 2-wave 3-comb
   ISYM   =      2    0-nonsym 1-usesym 2-fastsym
   LCORR  =      T    Harris-Foulkes like correction to forces

   POTIM  = 0.5000    time-step for ionic-motion
   TEIN   =    0.0    initial temperature
   TEBEG  =    0.0;   TEEND  =   0.0 temperature during run
   SMASS  =  -3.00    Nose mass-parameter (am)
   estimated Nose-frequenzy (Omega)   =  0.10E-29 period in steps =****** mass=  -0.480E-27a.u.
   SCALEE = 1.0000    scale energy and forces
   NPACO  =    256;   APACO  = 16.0  distance and # of slots for P.C.
   PSTRESS=    0.0 pullay stress

  Mass of Ions in am
   POMASS = 112.41127.60
  Ionic Valenz
   ZVAL   =  12.00  6.00
  Atomic Wigner-Seitz radii
   RWIGS  =  -1.00 -1.00
  virtual crystal weights 
   VCA    =   1.00  1.00
   NELECT =      18.0000    total number of electrons
   NUPDOWN=      -1.0000    fix difference up-down

 DOS related values:
   EMIN   =  10.00;   EMAX   =-10.00  energy-range for DOS
   EFERMI =   0.00
   ISMEAR =     0;   SIGMA  =   0.01  broadening in eV -4-tet -1-fermi 0-gaus

 Electronic relaxation 2 (details)
   IALGO  =     58    algorithm
   LDIAG  =      T    sub-space diagonalisation (order eigenvalues)
   LSUBROT=      F    optimize rotation matrix (better conditioning)
   TURBO    =      0    0=normal 1=particle mesh
   IRESTART =      0    0=no restart 2=restart with 2 vectors
   NREBOOT  =      0    no. of reboots
   NMIN     =      0    reboot dimension
   EREF     =   0.00    reference energy to select bands
   IMIX   =      4    mixing-type and parameters
     AMIX     =   0.40;   BMIX     =  1.00
     AMIX_MAG =   1.60;   BMIX_MAG =  1.00
     AMIN     =   0.10
     WC   =   100.;   INIMIX=   1;  MIXPRE=   1;  MAXMIX= -45

 Intra band minimization:
   WEIMIN = 0.0010     energy-eigenvalue tresh-hold
   EBREAK =  0.16E-07  absolut break condition
   DEPER  =   0.30     relativ break condition  

   TIME   =   0.40     timestep for ELM

  volume/ion in A,a.u.               =      34.05       229.81
  Fermi-wavevector in a.u.,A,eV,Ry     =   1.050581  1.985311 15.017042  1.103721
  Thomas-Fermi vector in A             =   2.185590
 
 Write flags
   LWAVE  =      T    write WAVECAR
   LCHARG =      T    write CHGCAR
   LVTOT  =      F    write LOCPOT, total local potential
   LVHAR  =      F    write LOCPOT, Hartree potential only
   LELF   =      F    write electronic localiz. function (ELF)
   LORBIT =     10    0 simple, 1 ext, 2 COOP (PROOUT)


 Dipole corrections
   LMONO  =      F    monopole corrections only (constant potential shift)
   LDIPOL =      F    correct potential (dipole corrections)
   IDIPOL =      0    1-x, 2-y, 3-z, 4-all directions 
   EPSILON=  1.0000000 bulk dielectric constant

 Core level calculations are selected ICORELEVEL =  1
 Exchange correlation treatment:
   GGA     =    PE    GGA type
   LEXCH   =     8    internal setting for exchange type
   VOSKOWN=      0    Vosko Wilk Nusair interpolation
   EXXOEP  =     0    0=HF, 1=EXX-LHF (local Hartree Fock) 2=EXX OEP
   LHFCALC =     T    Hartree Fock is set to
   LSYMGRAD=     F    symmetrize gradient (conserves proper symmetry)
   PRECFOCK=fast      Normal, Fast or Accurate (Low or Medium for compatibility)
   LRHFCALC=     F    long range Hartree Fock
   LRSCOR  =     F    long range correlation only (use DFT for short range part)
   LTHOMAS =     F    Thomas Fermi screening in HF
   LMODELHF=     F    short range full HF, long range fraction AEXX
   ENCUT4O =  -1.0   cutoff for four orbital integrals eV
   LMAXFOCK=     4    L truncation for augmentation on plane wave grid
   LMAXFOCKAE=  -1    L truncation for all-electron charge restoration on plane wave grid
   NMAXFOCKAE=   1    number of basis functions for all-electron charge restoration
   LFOCKAEDFT=     F  apply the AE augmentation even for DFT
   NKREDX  =     1    reduce k-point grid by
   NKREDY  =     1    reduce k-point grid by
   NKREDZ  =     1    reduce k-point grid by
   SHIFTRED=     F    shift reduced grid of Gamma
   HFKIDENT=     F    idential grid for each k-point
   ODDONLY =     F    use only odd q-grid points
   EVENONLY=     F    use only even q-grid points
   HFALPHA =   -1.0000 decay constant for conv. correction
   MCALPHA =    0.0000 extent of test-charge in conv. correction in multipole expansion
   AEXX    =    0.2500 exact exchange contribution
   HFSCREEN=    0.2070 screening length (either q_TF or 0.3 A-1)
   HFSCREENC=   0.2070 screening length for correlation (either q_TF or 0.3 A-1)
   HFRCUT  =    0.0000 spherical cutoff for potential kernel
   ALDAX   =    0.7500 LDA exchange part
   AGGAX   =    0.7500 GGA exchange part
   ALDAC   =    1.0000 LDA correlation
   AGGAC   =    1.0000 GGA correlation
   NBANDSGWLOW=     1    first orbital included in HF term
   ENCUTFOCK=  -1.0 apply spherical cutoff to Coloumb kernel
 Linear response parameters
   LEPSILON=     F    determine dielectric tensor
   LRPA    =     F    only Hartree local field effects (RPA)
   LNABLA  =     F    use nabla operator in PAW spheres
   LVEL    =     F    velocity operator in full k-point grid
   LINTERFAST=   F  fast interpolation
   KINTER  =     0    interpolate to denser k-point grid
   CSHIFT  =0.1000    complex shift for real part using Kramers Kronig
   OMEGAMAX=  -1.0    maximum frequency
   DEG_THRESHOLD= 0.2000000E-02 threshold for treating states as degnerate
   RTIME   =    0.100 relaxation time in fs

 Orbital magnetization related:
   ORBITALMAG=     F  switch on orbital magnetization
   LCHIMAG   =     F  perturbation theory with respect to B field
   DQ        =  0.001000  dq finite difference perturbation B field



--------------------------------------------------------------------------------------------------------


 conjugate gradient relaxation of ions
 charge density and potential remain constant during run
 non-spin polarized calculation
 Conjugate gradient for all bands (Freysoldt, et al. PRB 79, 241103 (2009))
 preconditioned conjugated gradient   charged. constant during bandupdate  
 perform sub-space diagonalisation
    before iterative eigenvector-optimisation
 no mixing
 using additional bands            7
 reciprocal scheme for non local part
 use partial core corrections
 calculate Harris-corrections to forces 
   (improved forces if not selfconsistent)
 use gradient corrections 
 WARNING: stress and forces are not correct
  (second derivative of E(xc) not defined)
 use of overlap-Matrix (Vanderbilt PP)
 Gauss-broadening in eV      SIGMA  =   0.01


--------------------------------------------------------------------------------------------------------


  energy-cutoff  :      500.00
  volume of cell :       68.11
      direct lattice vectors                 reciprocal lattice vectors
     3.241350000  3.241350000  0.000000000     0.154256714  0.154256714  0.154256714
     3.241350000  0.000000000 -3.241350000     0.154256714 -0.154256714 -0.154256714
     0.000000000  3.241350000 -3.241350000    -0.154256714  0.154256714 -0.154256714

  length of vectors
     4.583961130  4.583961130  4.583961130     0.267180466  0.267180466  0.267180466


 
 k-points in units of 2pi/SCALE and weight: Automatically generated mesh            
   0.00000000  0.00000000  0.00000000       0.005
   0.16666667  0.16666667  0.16666667       0.037
   0.33333333  0.33333333  0.33333333       0.037
   0.50000000  0.50000000  0.50000000       0.019
   0.33333333  0.00000000  0.00000000       0.028
   0.50000000  0.16666667  0.16666667       0.111
   0.66666667  0.33333333  0.33333333       0.111
  -0.16666667 -0.50000000 -0.50000000       0.111
   0.00000000 -0.33333333 -0.33333333       0.056
   0.66666667  0.00000000  0.00000000       0.028
   0.83333333  0.16666667  0.16666667       0.111
   0.00000000 -0.66666667 -0.66666667       0.056
   1.00000000  0.00000000  0.00000000       0.014
   0.66666667  0.33333333  0.00000000       0.111
  -0.16666667 -0.50000000 -0.83333333       0.111
   0.00000000 -0.66666667 -1.00000000       0.056
   0.00000000  0.00000000  0.00000000       0.000
   0.00000000  0.05000000  0.00000000       0.000
   0.00000000  0.10000000  0.00000000       0.000
   0.00000000  0.15000000  0.00000000       0.000
   0.00000000  0.19999998  0.00000000       0.000
   0.00000000  0.24999998  0.00000000       0.000
   0.00000000  0.29999998  0.00000000       0.000
   0.00000000  0.35000000  0.00000000       0.000
   0.00000000  0.39999998  0.00000000       0.000
   0.00000000  0.44999996  0.00000000       0.000
   0.00000000  0.49999998  0.00000000       0.000
   0.00000000  0.55000002  0.00000000       0.000
   0.00000000  0.59999996  0.00000000       0.000
   0.00000000  0.64999998  0.00000000       0.000
   0.00000000  0.69999998  0.00000000       0.000
   0.00000000  0.75000000  0.00000000       0.000
   0.00000000  0.79999996  0.00000000       0.000
   0.00000000  0.84999996  0.00000000       0.000
   0.00000000  0.89999992  0.00000000       0.000
   0.00000000  0.94999992  0.00000000       0.000
   0.00000000  0.99999994  0.00000000       0.000
   0.00000002  0.99999998 -0.04999998       0.000
  -0.00000001  1.00000001 -0.10000001       0.000
   0.00000001  0.99999999 -0.14999999       0.000
  -0.00000003  1.00000003 -0.20000001       0.000
  -0.00000001  1.00000001 -0.24999999       0.000
   0.00000001  0.99999999 -0.29999997       0.000
  -0.00000001  1.00000001 -0.35000001       0.000
   0.00000000  1.00000000 -0.39999998       0.000
   0.00000002  0.99999998 -0.44999994       0.000
  -0.00000001  1.00000001 -0.49999999       0.000
   0.00000000  0.94999998 -0.55000002       0.000
   0.00000000  0.89999998 -0.60000002       0.000
   0.00000000  0.85000002 -0.64999998       0.000
   0.00000000  0.80000002 -0.69999998       0.000
   0.00000000  0.75000000 -0.75000000       0.000
  -0.00000001  0.72000003 -0.72000003       0.000
   0.00000000  0.69000000 -0.69000000       0.000
  -0.00000001  0.66000003 -0.66000003       0.000
   0.00000000  0.63000000 -0.63000000       0.000
   0.00000000  0.60000002 -0.60000002       0.000
   0.00000001  0.57000005 -0.57000005       0.000
   0.00000000  0.54000002 -0.54000002       0.000
   0.00000001  0.50999999 -0.50999999       0.000
   0.00000000  0.48000002 -0.48000002       0.000
   0.00000000  0.45000002 -0.45000002       0.000
   0.00000000  0.42000002 -0.42000002       0.000
  -0.00000001  0.39000005 -0.39000005       0.000
   0.00000001  0.36000001 -0.36000001       0.000
   0.00000000  0.33000004 -0.33000004       0.000
   0.00000001  0.30000001 -0.30000001       0.000
   0.00000001  0.27000001 -0.27000001       0.000
  -0.00000001  0.24000001 -0.24000001       0.000
   0.00000000  0.21000004 -0.21000004       0.000
  -0.00000001  0.18000001 -0.18000001       0.000
   0.00000000  0.15000004 -0.15000004       0.000
   0.00000000  0.12000006 -0.12000006       0.000
   0.00000001  0.09000003 -0.09000003       0.000
   0.00000000  0.06000000 -0.06000000       0.000
   0.00000001  0.03000009 -0.03000009       0.000
   0.00000000  0.00000006 -0.00000006       0.000
   0.02083333  0.02083333 -0.02083333       0.000
   0.04166667  0.04166667 -0.04166667       0.000
   0.06250000  0.06250000 -0.06250000       0.000
   0.08333334  0.08333334 -0.08333334       0.000
   0.10416666  0.10416666 -0.10416666       0.000
   0.12500000  0.12500000 -0.12500000       0.000
   0.14583334  0.14583334 -0.14583334       0.000
   0.16666667  0.16666667 -0.16666667       0.000
   0.18750000  0.18750000 -0.18750000       0.000
   0.20833333  0.20833333 -0.20833333       0.000
   0.22916667  0.22916667 -0.22916667       0.000
   0.25000000  0.25000000 -0.25000000       0.000
   0.27083334  0.27083334 -0.27083334       0.000
   0.29166669  0.29166669 -0.29166669       0.000
   0.31250000  0.31250000 -0.31250000       0.000
   0.33333334  0.33333334 -0.33333334       0.000
   0.35416669  0.35416669 -0.35416669       0.000
   0.37500000  0.37500000 -0.37500000       0.000
   0.39583334  0.39583334 -0.39583334       0.000
   0.41666666  0.41666666 -0.41666666       0.000
   0.43750000  0.43750000 -0.43750000       0.000
   0.45833334  0.45833334 -0.45833334       0.000
   0.47916666  0.47916666 -0.47916666       0.000
   0.50000000  0.50000000 -0.50000000       0.000
   0.46875000  0.56250000 -0.46875000       0.000
   0.43750000  0.62500000 -0.43750000       0.000
   0.40625000  0.68750000 -0.40625000       0.000
   0.37500000  0.75000000 -0.37500000       0.000
   0.34375000  0.81250000 -0.34375000       0.000
   0.31250000  0.87500000 -0.31250000       0.000
   0.28125000  0.93750000 -0.28125000       0.000
   0.25000000  1.00000000 -0.25000000       0.000
   0.20000004  1.00000000 -0.29999996       0.000
   0.14999998  1.00000000 -0.35000002       0.000
   0.10000002  1.00000000 -0.39999998       0.000
   0.04999996  1.00000000 -0.45000004       0.000
   0.00000000  1.00000000 -0.50000000       0.000
   0.04999999  0.95000001 -0.50000003       0.000
   0.10000002  0.89999998 -0.50000000       0.000
   0.14999998  0.85000002 -0.50000000       0.000
   0.20000001  0.79999999 -0.49999997       0.000
   0.25000000  0.75000000 -0.50000000       0.000
   0.29999996  0.70000004 -0.50000000       0.000
   0.35000002  0.64999998 -0.50000000       0.000
   0.39999998  0.60000002 -0.50000000       0.000
   0.44999992  0.55000008 -0.50000000       0.000
   0.50000000  0.50000000 -0.50000000       0.000
   0.43750000  0.53125000 -0.53125000       0.000
   0.37500000  0.56250000 -0.56250000       0.000
   0.31250000  0.59375000 -0.59375000       0.000
   0.25000000  0.62500000 -0.62500000       0.000
   0.18750000  0.65625000 -0.65625000       0.000
   0.12500000  0.68750000 -0.68750000       0.000
   0.06250000  0.71875000 -0.71875000       0.000
 
 k-points in reciprocal lattice and weights: Automatically generated mesh            
   0.00000000  0.00000000  0.00000000       0.005
   0.16666667  0.00000000  0.00000000       0.037
   0.33333333  0.00000000  0.00000000       0.037
   0.50000000  0.00000000  0.00000000       0.019
   0.16666667  0.16666667  0.00000000       0.028
   0.33333333  0.16666667  0.00000000       0.111
   0.50000000  0.16666667  0.00000000       0.111
  -0.33333333  0.16666667  0.00000000       0.111
  -0.16666667  0.16666667  0.00000000       0.056
   0.33333333  0.33333333  0.00000000       0.028
   0.50000000  0.33333333  0.00000000       0.111
  -0.33333333  0.33333333  0.00000000       0.056
   0.50000000  0.50000000  0.00000000       0.014
   0.50000000  0.33333333  0.16666667       0.111
  -0.33333333  0.33333333  0.16666667       0.111
  -0.33333333  0.50000000  0.16666667       0.056
   0.00000000  0.00000000  0.00000000       0.000
   0.02500000  0.00000000  0.02500000       0.000
   0.05000000  0.00000000  0.05000000       0.000
   0.07500000  0.00000000  0.07500000       0.000
   0.09999999  0.00000000  0.09999999       0.000
   0.12499999  0.00000000  0.12499999       0.000
   0.14999999  0.00000000  0.14999999       0.000
   0.17500000  0.00000000  0.17500000       0.000
   0.19999999  0.00000000  0.19999999       0.000
   0.22499998  0.00000000  0.22499998       0.000
   0.24999999  0.00000000  0.24999999       0.000
   0.27500001  0.00000000  0.27500001       0.000
   0.29999998  0.00000000  0.29999998       0.000
   0.32499999  0.00000000  0.32499999       0.000
   0.34999999  0.00000000  0.34999999       0.000
   0.37500000  0.00000000  0.37500000       0.000
   0.39999998  0.00000000  0.39999998       0.000
   0.42499998  0.00000000  0.42499998       0.000
   0.44999996  0.00000000  0.44999996       0.000
   0.47499996  0.00000000  0.47499996       0.000
   0.49999997  0.00000000  0.49999997       0.000
   0.50000000  0.02500000  0.52499998       0.000
   0.50000000  0.05000000  0.55000001       0.000
   0.50000000  0.07500000  0.57499999       0.000
   0.50000000  0.09999999  0.60000002       0.000
   0.50000000  0.12499999  0.62500000       0.000
   0.50000000  0.14999999  0.64999998       0.000
   0.50000000  0.17500000  0.67500001       0.000
   0.50000000  0.19999999  0.69999999       0.000
   0.50000000  0.22499998  0.72499996       0.000
   0.50000000  0.24999999  0.75000000       0.000
   0.47499999  0.27500001  0.75000000       0.000
   0.44999999  0.30000001  0.75000000       0.000
   0.42500001  0.32499999  0.75000000       0.000
   0.40000001  0.34999999  0.75000000       0.000
   0.37500000  0.37500000  0.75000000       0.000
   0.36000001  0.36000001  0.72000003       0.000
   0.34500000  0.34500000  0.69000000       0.000
   0.33000001  0.33000001  0.66000003       0.000
   0.31500000  0.31500000  0.63000000       0.000
   0.30000001  0.30000001  0.60000002       0.000
   0.28500003  0.28500003  0.57000005       0.000
   0.27000001  0.27000001  0.54000002       0.000
   0.25500000  0.25500000  0.50999999       0.000
   0.24000001  0.24000001  0.48000002       0.000
   0.22500001  0.22500001  0.45000002       0.000
   0.21000001  0.21000001  0.42000002       0.000
   0.19500002  0.19500002  0.39000005       0.000
   0.18000001  0.18000001  0.36000001       0.000
   0.16500002  0.16500002  0.33000004       0.000
   0.15000001  0.15000001  0.30000001       0.000
   0.13500001  0.13500001  0.27000001       0.000
   0.12000000  0.12000000  0.24000001       0.000
   0.10500002  0.10500002  0.21000004       0.000
   0.09000000  0.09000000  0.18000001       0.000
   0.07500002  0.07500002  0.15000004       0.000
   0.06000003  0.06000003  0.12000006       0.000
   0.04500002  0.04500002  0.09000003       0.000
   0.03000000  0.03000000  0.06000000       0.000
   0.01500005  0.01500005  0.03000009       0.000
   0.00000003  0.00000003  0.00000006       0.000
   0.02083333  0.02083333  0.02083333       0.000
   0.04166667  0.04166667  0.04166667       0.000
   0.06250000  0.06250000  0.06250000       0.000
   0.08333334  0.08333334  0.08333334       0.000
   0.10416666  0.10416666  0.10416666       0.000
   0.12500000  0.12500000  0.12500000       0.000
   0.14583334  0.14583334  0.14583334       0.000
   0.16666667  0.16666667  0.16666667       0.000
   0.18750000  0.18750000  0.18750000       0.000
   0.20833333  0.20833333  0.20833333       0.000
   0.22916667  0.22916667  0.22916667       0.000
   0.25000000  0.25000000  0.25000000       0.000
   0.27083334  0.27083334  0.27083334       0.000
   0.29166669  0.29166669  0.29166669       0.000
   0.31250000  0.31250000  0.31250000       0.000
   0.33333334  0.33333334  0.33333334       0.000
   0.35416669  0.35416669  0.35416669       0.000
   0.37500000  0.37500000  0.37500000       0.000
   0.39583334  0.39583334  0.39583334       0.000
   0.41666666  0.41666666  0.41666666       0.000
   0.43750000  0.43750000  0.43750000       0.000
   0.45833334  0.45833334  0.45833334       0.000
   0.47916666  0.47916666  0.47916666       0.000
   0.50000000  0.50000000  0.50000000       0.000
   0.51562500  0.46875000  0.51562500       0.000
   0.53125000  0.43750000  0.53125000       0.000
   0.54687500  0.40625000  0.54687500       0.000
   0.56250000  0.37500000  0.56250000       0.000
   0.57812500  0.34375000  0.57812500       0.000
   0.59375000  0.31250000  0.59375000       0.000
   0.60937500  0.28125000  0.60937500       0.000
   0.62500000  0.25000000  0.62500000       0.000
   0.60000002  0.25000000  0.64999998       0.000
   0.57499999  0.25000000  0.67500001       0.000
   0.55000001  0.25000000  0.69999999       0.000
   0.52499998  0.25000000  0.72500002       0.000
   0.50000000  0.25000000  0.75000000       0.000
   0.50000000  0.27500001  0.72500002       0.000
   0.50000000  0.30000001  0.69999999       0.000
   0.50000000  0.32499999  0.67500001       0.000
   0.50000000  0.34999999  0.64999998       0.000
   0.50000000  0.37500000  0.62500000       0.000
   0.50000000  0.39999998  0.60000002       0.000
   0.50000000  0.42500001  0.57499999       0.000
   0.50000000  0.44999999  0.55000001       0.000
   0.50000000  0.47499996  0.52500004       0.000
   0.50000000  0.50000000  0.50000000       0.000
   0.48437500  0.48437500  0.53125000       0.000
   0.46875000  0.46875000  0.56250000       0.000
   0.45312500  0.45312500  0.59375000       0.000
   0.43750000  0.43750000  0.62500000       0.000
   0.42187500  0.42187500  0.65625000       0.000
   0.40625000  0.40625000  0.68750000       0.000
   0.39062500  0.39062500  0.71875000       0.000
 
 position of ions in fractional coordinates (direct lattice) 
   0.00000000  0.00000000  0.00000000
   0.25000000  0.25000000  0.25000000
 
 position of ions in cartesian coordinates  (Angst):
   0.00000000  0.00000000  0.00000000
   1.62067500  1.62067500 -1.62067500
 


--------------------------------------------------------------------------------------------------------


 k-point  1 :   0.0000 0.0000 0.0000  plane waves:    1759
 k-point  2 :   0.1667 0.0000 0.0000  plane waves:    1747
 k-point  3 :   0.3333 0.0000 0.0000  plane waves:    1730
 k-point  4 :   0.5000 0.0000 0.0000  plane waves:    1718
 k-point  5 :   0.1667 0.1667 0.0000  plane waves:    1736
 k-point  6 :   0.3333 0.1667 0.0000  plane waves:    1729
 k-point  7 :   0.5000 0.1667 0.0000  plane waves:    1739
 k-point  8 :  -0.3333 0.1667 0.0000  plane waves:    1732
 k-point  9 :  -0.1667 0.1667 0.0000  plane waves:    1735
 k-point 10 :   0.3333 0.3333 0.0000  plane waves:    1728
 k-point 11 :   0.5000 0.3333 0.0000  plane waves:    1723
 k-point 12 :  -0.3333 0.3333 0.0000  plane waves:    1726
 k-point 13 :   0.5000 0.5000 0.0000  plane waves:    1724
 k-point 14 :   0.5000 0.3333 0.1667  plane waves:    1724
 k-point 15 :  -0.3333 0.3333 0.1667  plane waves:    1726
 k-point 16 :  -0.3333 0.5000 0.1667  plane waves:    1722
 k-point 17 :   0.0000 0.0000 0.0000  plane waves:    1759
 k-point 18 :   0.0250 0.0000 0.0250  plane waves:    1755
 k-point 19 :   0.0500 0.0000 0.0500  plane waves:    1763
 k-point 20 :   0.0750 0.0000 0.0750  plane waves:    1747
 k-point 21 :   0.1000 0.0000 0.1000  plane waves:    1744
 k-point 22 :   0.1250 0.0000 0.1250  plane waves:    1740
 k-point 23 :   0.1500 0.0000 0.1500  plane waves:    1748
 k-point 24 :   0.1750 0.0000 0.1750  plane waves:    1744
 k-point 25 :   0.2000 0.0000 0.2000  plane waves:    1736
 k-point 26 :   0.2250 0.0000 0.2250  plane waves:    1736
 k-point 27 :   0.2500 0.0000 0.2500  plane waves:    1716
 k-point 28 :   0.2750 0.0000 0.2750  plane waves:    1724
 k-point 29 :   0.3000 0.0000 0.3000  plane waves:    1720
 k-point 30 :   0.3250 0.0000 0.3250  plane waves:    1728
 k-point 31 :   0.3500 0.0000 0.3500  plane waves:    1728
 k-point 32 :   0.3750 0.0000 0.3750  plane waves:    1728
 k-point 33 :   0.4000 0.0000 0.4000  plane waves:    1736
 k-point 34 :   0.4250 0.0000 0.4250  plane waves:    1728
 k-point 35 :   0.4500 0.0000 0.4500  plane waves:    1732
 k-point 36 :   0.4750 0.0000 0.4750  plane waves:    1724
 k-point 37 :   0.5000 0.0000 0.5000  plane waves:    1724
 k-point 38 :   0.5000 0.0250 0.5250  plane waves:    1724
 k-point 39 :   0.5000 0.0500 0.5500  plane waves:    1724
 k-point 40 :   0.5000 0.0750 0.5750  plane waves:    1720
 k-point 41 :   0.5000 0.1000 0.6000  plane waves:    1720
 k-point 42 :   0.5000 0.1250 0.6250  plane waves:    1722
 k-point 43 :   0.5000 0.1500 0.6500  plane waves:    1728
 k-point 44 :   0.5000 0.1750 0.6750  plane waves:    1724
 k-point 45 :   0.5000 0.2000 0.7000  plane waves:    1732
 k-point 46 :   0.5000 0.2250 0.7250  plane waves:    1730
 k-point 47 :   0.5000 0.2500 0.7500  plane waves:    1744
 k-point 48 :   0.4750 0.2750 0.7500  plane waves:    1732
 k-point 49 :   0.4500 0.3000 0.7500  plane waves:    1728
 k-point 50 :   0.4250 0.3250 0.7500  plane waves:    1726
 k-point 51 :   0.4000 0.3500 0.7500  plane waves:    1726
 k-point 52 :   0.3750 0.3750 0.7500  plane waves:    1730
 k-point 53 :   0.3600 0.3600 0.7200  plane waves:    1730
 k-point 54 :   0.3450 0.3450 0.6900  plane waves:    1728
 k-point 55 :   0.3300 0.3300 0.6600  plane waves:    1724
 k-point 56 :   0.3150 0.3150 0.6300  plane waves:    1724
 k-point 57 :   0.3000 0.3000 0.6000  plane waves:    1724
 k-point 58 :   0.2850 0.2850 0.5700  plane waves:    1738
 k-point 59 :   0.2700 0.2700 0.5400  plane waves:    1730
 k-point 60 :   0.2550 0.2550 0.5100  plane waves:    1742
 k-point 61 :   0.2400 0.2400 0.4800  plane waves:    1734
 k-point 62 :   0.2250 0.2250 0.4500  plane waves:    1728
 k-point 63 :   0.2100 0.2100 0.4200  plane waves:    1726
 k-point 64 :   0.1950 0.1950 0.3900  plane waves:    1734
 k-point 65 :   0.1800 0.1800 0.3600  plane waves:    1734
 k-point 66 :   0.1650 0.1650 0.3300  plane waves:    1735
 k-point 67 :   0.1500 0.1500 0.3000  plane waves:    1737
 k-point 68 :   0.1350 0.1350 0.2700  plane waves:    1741
 k-point 69 :   0.1200 0.1200 0.2400  plane waves:    1747
 k-point 70 :   0.1050 0.1050 0.2100  plane waves:    1745
 k-point 71 :   0.0900 0.0900 0.1800  plane waves:    1743
 k-point 72 :   0.0750 0.0750 0.1500  plane waves:    1749
 k-point 73 :   0.0600 0.0600 0.1200  plane waves:    1751
 k-point 74 :   0.0450 0.0450 0.0900  plane waves:    1753
 k-point 75 :   0.0300 0.0300 0.0600  plane waves:    1757
 k-point 76 :   0.0150 0.0150 0.0300  plane waves:    1763
 k-point 77 :   0.0000 0.0000 0.0000  plane waves:    1759
 k-point 78 :   0.0208 0.0208 0.0208  plane waves:    1762
 k-point 79 :   0.0417 0.0417 0.0417  plane waves:    1756
 k-point 80 :   0.0625 0.0625 0.0625  plane waves:    1756
 k-point 81 :   0.0833 0.0833 0.0833  plane waves:    1753
 k-point 82 :   0.1042 0.1042 0.1042  plane waves:    1750
 k-point 83 :   0.1250 0.1250 0.1250  plane waves:    1747
 k-point 84 :   0.1458 0.1458 0.1458  plane waves:    1747
 k-point 85 :   0.1667 0.1667 0.1667  plane waves:    1747
 k-point 86 :   0.1875 0.1875 0.1875  plane waves:    1754
 k-point 87 :   0.2083 0.2083 0.2083  plane waves:    1754
 k-point 88 :   0.2292 0.2292 0.2292  plane waves:    1745
 k-point 89 :   0.2500 0.2500 0.2500  plane waves:    1751
 k-point 90 :   0.2708 0.2708 0.2708  plane waves:    1736
 k-point 91 :   0.2917 0.2917 0.2917  plane waves:    1724
 k-point 92 :   0.3125 0.3125 0.3125  plane waves:    1730
 k-point 93 :   0.3333 0.3333 0.3333  plane waves:    1730
 k-point 94 :   0.3542 0.3542 0.3542  plane waves:    1727
 k-point 95 :   0.3750 0.3750 0.3750  plane waves:    1727
 k-point 96 :   0.3958 0.3958 0.3958  plane waves:    1727
 k-point 97 :   0.4167 0.4167 0.4167  plane waves:    1727
 k-point 98 :   0.4375 0.4375 0.4375  plane waves:    1724
 k-point 99 :   0.4583 0.4583 0.4583  plane waves:    1718
 k-point ** :   0.4792 0.4792 0.4792  plane waves:    1718
 k-point ** :   0.5000 0.5000 0.5000  plane waves:    1718
 k-point ** :   0.5156 0.4688 0.5156  plane waves:    1727
 k-point ** :   0.5312 0.4375 0.5312  plane waves:    1727
 k-point ** :   0.5469 0.4062 0.5469  plane waves:    1738
 k-point ** :   0.5625 0.3750 0.5625  plane waves:    1731
 k-point ** :   0.5781 0.3438 0.5781  plane waves:    1729
 k-point ** :   0.5938 0.3125 0.5938  plane waves:    1726
 k-point ** :   0.6094 0.2812 0.6094  plane waves:    1730
 k-point ** :   0.6250 0.2500 0.6250  plane waves:    1730
 k-point ** :   0.6000 0.2500 0.6500  plane waves:    1726
 k-point ** :   0.5750 0.2500 0.6750  plane waves:    1726
 k-point ** :   0.5500 0.2500 0.7000  plane waves:    1728
 k-point ** :   0.5250 0.2500 0.7250  plane waves:    1732
 k-point ** :   0.5000 0.2500 0.7500  plane waves:    1744
 k-point ** :   0.5000 0.2750 0.7250  plane waves:    1728
 k-point ** :   0.5000 0.3000 0.7000  plane waves:    1724
 k-point ** :   0.5000 0.3250 0.6750  plane waves:    1722
 k-point ** :   0.5000 0.3500 0.6500  plane waves:    1724
 k-point ** :   0.5000 0.3750 0.6250  plane waves:    1730
 k-point ** :   0.5000 0.4000 0.6000  plane waves:    1738
 k-point ** :   0.5000 0.4250 0.5750  plane waves:    1738
 k-point ** :   0.5000 0.4500 0.5500  plane waves:    1732
 k-point ** :   0.5000 0.4750 0.5250  plane waves:    1722
 k-point ** :   0.5000 0.5000 0.5000  plane waves:    1718
 k-point ** :   0.4844 0.4844 0.5312  plane waves:    1727
 k-point ** :   0.4688 0.4688 0.5625  plane waves:    1727
 k-point ** :   0.4531 0.4531 0.5938  plane waves:    1738
 k-point ** :   0.4375 0.4375 0.6250  plane waves:    1731
 k-point ** :   0.4219 0.4219 0.6562  plane waves:    1729
 k-point ** :   0.4062 0.4062 0.6875  plane waves:    1726
 k-point ** :   0.3906 0.3906 0.7188  plane waves:    1730

 maximum and minimum number of plane-waves per node :      1763     1716

 maximum number of plane-waves:      1763
 maximum index in each direction: 
   IXMAX=    8   IYMAX=    8   IZMAX=    8
   IXMIN=   -8   IYMIN=   -8   IZMIN=   -9

 NGX is ok and might be reduce to  34
 NGY is ok and might be reduce to  34
 NGZ is ok and might be reduce to  36

 serial   3D FFT for wavefunctions
 parallel 3D FFT for charge:
    minimum data exchange during FFTs selected (reduces bandwidth)


 FFT grid for exact exchange (Hartree Fock) 
  NGX = 20; NGY = 20; NGZ = 20

 
 Radii for the augmentation spheres in the non-local exchange
 for species   1 augmentation radius   1.444 (default was   1.070)
       energy cutoff for augmentation   2000.0
 for species   2 augmentation radius   1.606 (default was   1.190)
       energy cutoff for augmentation   2000.0

 total amount of memory used by VASP on root node   153422. kBytes
========================================================================

   base      :      30000. kBytes
   nonl-proj :      66608. kBytes
   fftplans  :       3408. kBytes
   grid      :       7216. kBytes
   one-center:         31. kBytes
   HF        :        129. kBytes
   nonlr-proj:        859. kBytes
   wavefun   :      45171. kBytes
 
     INWAV:  cpu time    0.00: real time    0.00
 initial charge density was supplied:
 number of electron      17.9999996 magnetization 
 keeping initial charge density in first step


--------------------------------------------------------------------------------------------------------


 Maximum index for augmentation-charges         9730 (set IRDMAX)


--------------------------------------------------------------------------------------------------------


 First call to EWALD:  gamma=   0.434
 Maximum number of real-space cells 3x 3x 3
 Maximum number of reciprocal cells 3x 3x 3

 FEWALD executed in parallel
    FEWALD:  cpu time    0.01: real time    0.01


----------------------------------------- Iteration    1(   1)  ---------------------------------------


    POTLOK:  cpu time    0.33: real time    0.33
    SETDIJ:  cpu time    0.21: real time    0.21
    TRIAL :  cpu time    0.39: real time    0.42
    CORREC:  cpu time    0.00: real time    0.00
    --------------------------------------------
      LOOP:  cpu time    0.93: real time    0.96

 eigenvalue-minimisations  :  5320
 total energy-change (2. order) : 0.6396684E+03  (-0.4343318E+04)
 number of electron      17.9999996 magnetization 
 augmentation part       17.9999996 magnetization 

 Free energy of the ion-electron system (eV)
  ---------------------------------------------------
  alpha Z        PSCENC =        50.17222034
  Ewald energy   TEWEN  =     -1044.83138452
  -Hartree energ DENC   =      -506.36518877
  -exchange      EXHF   =         0.00000000
  -V(xc)+E(xc)   XCENC  =       -19.62824341
  PAW double counting   =      3343.37247257    -3279.96372356
  entropy T*S    EENTRO =        -0.00045075
  eigenvalues    EBANDS =       582.61466854
  atomic energy  EATOM  =      1514.29801353
  ---------------------------------------------------
  free energy    TOTEN  =       639.66838398 eV

  energy without entropy =      639.66883472  energy(sigma->0) =      639.66860935


--------------------------------------------------------------------------------------------------------




----------------------------------------- Iteration    1(   2)  ---------------------------------------


    TRIAL :  cpu time    0.39: real time    0.39
    CORREC:  cpu time    0.00: real time    0.00
    --------------------------------------------
      LOOP:  cpu time    0.39: real time    0.40

 eigenvalue-minimisations  :  5512
 total energy-change (2. order) :-0.5460869E+03  (-0.5065283E+03)
 number of electron      17.9999996 magnetization 
 augmentation part       17.9999996 magnetization 

 Free energy of the ion-electron system (eV)
  ---------------------------------------------------
  alpha Z        PSCENC =        50.17222034
  Ewald energy   TEWEN  =     -1044.83138452
  -Hartree energ DENC   =      -506.36518877
  -exchange      EXHF   =         0.00000000
  -V(xc)+E(xc)   XCENC  =       -19.62824341
  PAW double counting   =      3343.37247257    -3279.96372356
  entropy T*S    EENTRO =        -0.00020896
  eigenvalues    EBANDS =        36.52755128
  atomic energy  EATOM  =      1514.29801353
  ---------------------------------------------------
  free energy    TOTEN  =        93.58150850 eV

  energy without entropy =       93.58171746  energy(sigma->0) =       93.58161298


--------------------------------------------------------------------------------------------------------




----------------------------------------- Iteration    1(   3)  ---------------------------------------


    TRIAL :  cpu time    0.40: real time    0.40
    CORREC:  cpu time    0.00: real time    0.00
    --------------------------------------------
      LOOP:  cpu time    0.40: real time    0.40

 eigenvalue-minimisations  :  5472
 total energy-change (2. order) :-0.6265049E+02  (-0.5856890E+02)
 number of electron      17.9999996 magnetization 
 augmentation part       17.9999996 magnetization 

 Free energy of the ion-electron system (eV)
  ---------------------------------------------------
  alpha Z        PSCENC =        50.17222034
  Ewald energy   TEWEN  =     -1044.83138452
  -Hartree energ DENC   =      -506.36518877
  -exchange      EXHF   =         0.00000000
  -V(xc)+E(xc)   XCENC  =       -19.62824341
  PAW double counting   =      3343.37247257    -3279.96372356
  entropy T*S    EENTRO =        -0.00000000
  eigenvalues    EBANDS =       -26.12314428
  atomic energy  EATOM  =      1514.29801353
  ---------------------------------------------------
  free energy    TOTEN  =        30.93102189 eV

  energy without entropy =       30.93102189  energy(sigma->0) =       30.93102189


--------------------------------------------------------------------------------------------------------




----------------------------------------- Iteration    1(   4)  ---------------------------------------


    TRIAL :  cpu time    0.36: real time    0.36
    CORREC:  cpu time    0.00: real time    0.00
    --------------------------------------------
      LOOP:  cpu time    0.36: real time    0.36

 eigenvalue-minimisations  :  4848
 total energy-change (2. order) :-0.2812421E+01  (-0.2806922E+01)
 number of electron      17.9999996 magnetization 
 augmentation part       17.9999996 magnetization 

 Free energy of the ion-electron system (eV)
  ---------------------------------------------------
  alpha Z        PSCENC =        50.17222034
  Ewald energy   TEWEN  =     -1044.83138452
  -Hartree energ DENC   =      -506.36518877
  -exchange      EXHF   =         0.00000000
  -V(xc)+E(xc)   XCENC  =       -19.62824341
  PAW double counting   =      3343.37247257    -3279.96372356
  entropy T*S    EENTRO =        -0.00000000
  eigenvalues    EBANDS =       -28.93556479
  atomic energy  EATOM  =      1514.29801353
  ---------------------------------------------------
  free energy    TOTEN  =        28.11860139 eV

  energy without entropy =       28.11860139  energy(sigma->0) =       28.11860139


--------------------------------------------------------------------------------------------------------




----------------------------------------- Iteration    1(   5)  ---------------------------------------


    TRIAL :  cpu time    0.44: real time    0.44
    CORREC:  cpu time    0.00: real time    0.00
    --------------------------------------------
      LOOP:  cpu time    0.44: real time    0.44

 eigenvalue-minimisations  :  6424
 total energy-change (2. order) :-0.4799394E-01  (-0.4798528E-01)
 number of electron      17.9999996 magnetization 
 augmentation part       17.9999996 magnetization 

 Free energy of the ion-electron system (eV)
  ---------------------------------------------------
  alpha Z        PSCENC =        50.17222034
  Ewald energy   TEWEN  =     -1044.83138452
  -Hartree energ DENC   =      -506.36518877
  -exchange      EXHF   =         0.00000000
  -V(xc)+E(xc)   XCENC  =       -19.62824341
  PAW double counting   =      3343.37247257    -3279.96372356
  entropy T*S    EENTRO =        -0.00000000
  eigenvalues    EBANDS =       -28.98355873
  atomic energy  EATOM  =      1514.29801353
  ---------------------------------------------------
  free energy    TOTEN  =        28.07060744 eV

  energy without entropy =       28.07060744  energy(sigma->0) =       28.07060744


--------------------------------------------------------------------------------------------------------




----------------------------------------- Iteration    1(   6)  ---------------------------------------


    TRIAL :  cpu time   44.57: real time   44.65
    CORREC:  cpu time   44.55: real time   44.66
    --------------------------------------------
      LOOP:  cpu time   89.12: real time   89.30

 eigenvalue-minimisations  :     0
 total energy-change (2. order) :-0.3356925E+02  (-0.3696892E+00)
 number of electron      17.9999996 magnetization 
 augmentation part       17.9999996 magnetization 

 Free energy of the ion-electron system (eV)
  ---------------------------------------------------
  alpha Z        PSCENC =        50.17222034
  Ewald energy   TEWEN  =     -1044.83138452
  -Hartree energ DENC   =      -506.36518877
  -exchange      EXHF   =        33.56924997
  -V(xc)+E(xc)   XCENC  =       -19.62824341
  PAW double counting   =      3343.37247257    -3279.96372356
  entropy T*S    EENTRO =        -0.00000000
  eigenvalues    EBANDS =       -96.12206183
  atomic energy  EATOM  =      1514.29801353
  ---------------------------------------------------
  free energy    TOTEN  =        -5.49864568 eV

  energy without entropy =       -5.49864568  energy(sigma->0) =       -5.49864568


--------------------------------------------------------------------------------------------------------




----------------------------------------- Iteration    1(   7)  ---------------------------------------


    TRIAL :  cpu time   44.47: real time   44.52
    CORREC:  cpu time   44.63: real time   44.66
    --------------------------------------------
      LOOP:  cpu time   89.10: real time   89.18

 eigenvalue-minimisations  :     0
 total energy-change (2. order) :-0.3720294E+00  (-0.1084616E+00)
 number of electron      17.9999996 magnetization 
 augmentation part       17.9999996 magnetization 

 Free energy of the ion-electron system (eV)
  ---------------------------------------------------
  alpha Z        PSCENC =        50.17222034
  Ewald energy   TEWEN  =     -1044.83138452
  -Hartree energ DENC   =      -506.36518877
  -exchange      EXHF   =        34.27990629
  -V(xc)+E(xc)   XCENC  =       -19.62824341
  PAW double counting   =      3343.37247257    -3279.96372356
  entropy T*S    EENTRO =        -0.00000000
  eigenvalues    EBANDS =       -97.20474758
  atomic energy  EATOM  =      1514.29801353
  ---------------------------------------------------
  free energy    TOTEN  =        -5.87067511 eV

  energy without entropy =       -5.87067511  energy(sigma->0) =       -5.87067511


--------------------------------------------------------------------------------------------------------




----------------------------------------- Iteration    1(   8)  ---------------------------------------


    TRIAL :  cpu time   44.45: real time   44.55
    CORREC:  cpu time   44.62: real time   44.71
    --------------------------------------------
      LOOP:  cpu time   89.07: real time   89.26

 eigenvalue-minimisations  :     0
 total energy-change (2. order) :-0.1115989E+00  (-0.3849164E-01)
 number of electron      17.9999996 magnetization 
 augmentation part       17.9999996 magnetization 

 Free energy of the ion-electron system (eV)
  ---------------------------------------------------
  alpha Z        PSCENC =        50.17222034
  Ewald energy   TEWEN  =     -1044.83138452
  -Hartree energ DENC   =      -506.36518877
  -exchange      EXHF   =        34.49536775
  -V(xc)+E(xc)   XCENC  =       -19.62824341
  PAW double counting   =      3343.37247257    -3279.96372356
  entropy T*S    EENTRO =        -0.00000000
  eigenvalues    EBANDS =       -97.53180792
  atomic energy  EATOM  =      1514.29801353
  ---------------------------------------------------
  free energy    TOTEN  =        -5.98227400 eV

[...]
      6      -6.8124      2.00000
      7      -2.5925      2.00000
      8      -0.8005      2.00000
      9      -0.1729      2.00000
     10       6.7643      0.00000
     11       7.3519      0.00000
     12       8.2872      0.00000
     13       9.4733      0.00000
     14      11.7658      0.00000
     15      13.6438      0.00000
     16      14.2310      0.00000

 k-point   117 :       0.5000    0.3250    0.6750
  band No.  band energies     occupation 
      1      -9.8346      2.00000
      2      -7.6483      2.00000
      3      -7.6339      2.00000
      4      -7.5134      2.00000
      5      -7.4848      2.00000
      6      -6.8472      2.00000
      7      -2.5980      2.00000
      8      -0.7579      2.00000
      9       0.0514      2.00000
     10       6.5309      0.00000
     11       7.2703      0.00000
     12       8.4623      0.00000
     13       9.8943      0.00000
     14      11.0593      0.00000
     15      13.4636      0.00000
     16      14.2052      0.00000

 k-point   118 :       0.5000    0.3500    0.6500
  band No.  band energies     occupation 
      1      -9.8494      2.00000
      2      -7.6565      2.00000
      3      -7.6430      2.00000
      4      -7.5089      2.00000
      5      -7.4838      2.00000
      6      -6.8879      2.00000
      7      -2.6301      2.00000
      8      -0.6070      2.00000
      9       0.2739      2.00000
     10       6.2566      0.00000
     11       7.2059      0.00000
     12       8.6782      0.00000
     13      10.2615      0.00000
     14      10.5227      0.00000
     15      13.2514      0.00000
     16      14.0223      0.00000

 k-point   119 :       0.5000    0.3750    0.6250
  band No.  band energies     occupation 
      1      -9.8660      2.00000
      2      -7.6650      2.00000
      3      -7.6539      2.00000
      4      -7.5032      2.00000
      5      -7.4828      2.00000
      6      -6.9294      2.00000
      7      -2.6853      2.00000
      8      -0.3588      2.00000
      9       0.4811      2.00000
     10       5.9354      0.00000
     11       7.2113      0.00000
     12       8.7824      0.00000
     13       9.9683      0.00000
     14      10.8801      0.00000
     15      12.9296      0.00000
     16      13.5861      0.00000

 k-point   120 :       0.5000    0.4000    0.6000
  band No.  band energies     occupation 
      1      -9.8828      2.00000
      2      -7.6732      2.00000
      3      -7.6652      2.00000
      4      -7.4967      2.00000
      5      -7.4818      2.00000
      6      -6.9679      2.00000
      7      -2.7507      2.00000
      8      -0.0410      2.00000
      9       0.6620      2.00000
     10       5.5735      0.00000
     11       7.2946      0.00000
     12       8.6198      0.00000
     13       9.9096      0.00000
     14      11.3232      0.00000
     15      12.5309      0.00000
     16      13.3498      0.00000

 k-point   121 :       0.5000    0.4250    0.5750
  band No.  band energies     occupation 
      1      -9.8982      2.00000
      2      -7.6803      2.00000
      3      -7.6755      2.00000
      4      -7.4904      2.00000
      5      -7.4810      2.00000
      6      -7.0004      2.00000
      7      -2.8133      2.00000
      8       0.3102      2.00000
      9       0.8087      2.00000
     10       5.1902      0.00000
     11       7.4445      0.00000
     12       8.3314      0.00000
     13      10.0060      0.00000
     14      11.5477      0.00000
     15      12.4229      0.00000
     16      13.2351      0.00000

 k-point   122 :       0.5000    0.4500    0.5500
  band No.  band energies     occupation 
      1      -9.9105      2.00000
      2      -7.6858      2.00000
      3      -7.6836      2.00000
      4      -7.4850      2.00000
      5      -7.4805      2.00000
      6      -7.0248      2.00000
      7      -2.8636      2.00000
      8       0.6471      2.00000
      9       0.9159      2.00000
     10       4.8260      0.00000
     11       7.6339      0.00000
     12       8.0871      0.00000
     13      10.0056      0.00000
     14      11.5209      0.00000
     15      12.7587      0.00000
     16      13.1927      0.00000

 k-point   123 :       0.5000    0.4750    0.5250
  band No.  band energies     occupation 
      1      -9.9184      2.00000
      2      -7.6893      2.00000
      3      -7.6887      2.00000
      4      -7.4813      2.00000
      5      -7.4802      2.00000
      6      -7.0400      2.00000
      7      -2.8959      2.00000
      8       0.9038      2.00000
      9       0.9809      2.00000
     10       4.5492      0.00000
     11       7.8090      0.00000
     12       7.9355      0.00000
     13       9.8838      0.00000
     14      11.5480      0.00000
     15      13.1284      0.00000
     16      13.2123      0.00000

 k-point   124 :       0.5000    0.5000    0.5000
  band No.  band energies     occupation 
      1      -9.9212      2.00000
      2      -7.6905      2.00000
      3      -7.6905      2.00000
      4      -7.4801      2.00000
      5      -7.4801      2.00000
      6      -7.0452      2.00000
      7      -2.9069      2.00000
      8       1.0026      2.00000
      9       1.0026      2.00000
     10       4.4429      0.00000
     11       7.8848      0.00000
     12       7.8848      0.00000
     13       9.8097      0.00000
     14      11.5795      0.00000
     15      13.2501      0.00000
     16      13.2503      0.00000

 k-point   125 :       0.4844    0.4844    0.5312
  band No.  band energies     occupation 
      1      -9.9180      2.00000
      2      -7.6891      2.00000
      3      -7.6884      2.00000
      4      -7.4816      2.00000
      5      -7.4802      2.00000
      6      -7.0391      2.00000
      7      -2.8940      2.00000
      8       0.8873      2.00000
      9       0.9774      2.00000
     10       4.5666      0.00000
     11       7.7975      0.00000
     12       7.9438      0.00000
     13       9.8946      0.00000
     14      11.5439      0.00000
     15      13.1419      0.00000
     16      13.1672      0.00000

 k-point   126 :       0.4688    0.4688    0.5625
  band No.  band energies     occupation 
      1      -9.9087      2.00000
      2      -7.6850      2.00000
      3      -7.6825      2.00000
      4      -7.4858      2.00000
      5      -7.4805      2.00000
      6      -7.0214      2.00000
      7      -2.8564      2.00000
      8       0.5912      2.00000
      9       0.9057      2.00000
     10       4.8791      0.00000
     11       7.6102      0.00000
     12       8.1164      0.00000
     13      10.0128      0.00000
     14      11.5272      0.00000
     15      12.8354      0.00000
     16      12.9753      0.00000

 k-point   127 :       0.4531    0.4531    0.5938
  band No.  band energies     occupation 
      1      -9.8946      2.00000
      2      -7.6786      2.00000
      3      -7.6732      2.00000
      4      -7.4923      2.00000
      5      -7.4808      2.00000
      6      -6.9931      2.00000
      7      -2.7987      2.00000
      8       0.2077      2.00000
      9       0.7975      2.00000
     10       5.2540      0.00000
     11       7.4532      0.00000
     12       8.3902      0.00000
     13       9.9428      0.00000
     14      11.6025      0.00000
     15      12.6260      0.00000
     16      12.7577      0.00000

 k-point   128 :       0.4375    0.4375    0.6250
  band No.  band energies     occupation 
      1      -9.8774      2.00000
      2      -7.6704      2.00000
      3      -7.6615      2.00000
      4      -7.5001      2.00000
      5      -7.4810      2.00000
      6      -6.9561      2.00000
      7      -2.7294      2.00000
      8      -0.1871      2.00000
      9       0.6666      2.00000
     10       5.5487      0.00000
     11       7.4387      0.00000
     12       8.7467      0.00000
     13       9.6979      0.00000
     14      11.4942      0.00000
     15      12.5568      0.00000
     16      12.8913      0.00000

 k-point   129 :       0.4219    0.4219    0.6562
  band No.  band energies     occupation 
      1      -9.8593      2.00000
      2      -7.6613      2.00000
      3      -7.6488      2.00000
      4      -7.5085      2.00000
      5      -7.4807      2.00000
      6      -6.9140      2.00000
      7      -2.6633      2.00000
      8      -0.5364      2.00000
      9       0.5270      2.00000
     10       5.6660      0.00000
     11       7.5881      0.00000
     12       9.1618      0.00000
     13       9.4512      0.00000
     14      11.2166      0.00000
     15      12.3974      0.00000
     16      13.5305      0.00000

 k-point   130 :       0.4062    0.4062    0.6875
  band No.  band energies     occupation 
      1      -9.8425      2.00000
      2      -7.6524      2.00000
      3      -7.6366      2.00000
      4      -7.5170      2.00000
      5      -7.4796      2.00000
      6      -6.8719      2.00000
      7      -2.6206      2.00000
      8      -0.7922      2.00000
      9       0.3920      2.00000
     10       5.6425      0.00000
     11       7.6953      0.00000
     12       9.4285      0.00000
     13       9.6025      0.00000
     14      10.9266      0.00000
     15      12.3051      0.00000
     16      14.3133      0.00000

 k-point   131 :       0.3906    0.3906    0.7188
  band No.  band energies     occupation 
      1      -9.8293      2.00000
      2      -7.6446      2.00000
      3      -7.6261      2.00000
      4      -7.5251      2.00000
      5      -7.4775      2.00000
      6      -6.8378      2.00000
      7      -2.6168      2.00000
      8      -0.9185      2.00000
      9       0.2723      2.00000
     10       5.5663      0.00000
     11       7.5487      0.00000
     12       9.7629      0.00000
     13      10.0199      0.00000
     14      10.6799      0.00000
     15      12.3178      0.00000
     16      15.0919      0.00000


--------------------------------------------------------------------------------------------------------


 soft charge-density along one line, spin component           1
         0         1         2         3         4         5         6         7         8         9
 total charge-density along one line
 
 pseudopotential strength for first ion, spin component:           1
-16.341   0.000   0.000   0.000   0.000 -16.451   0.000   0.000
  0.000 -16.341   0.000  -0.000  -0.000   0.000 -16.451   0.000
  0.000   0.000 -16.341   0.000  -0.000   0.000   0.000 -16.451
  0.000  -0.000   0.000 -16.341   0.000   0.000  -0.000   0.000
  0.000  -0.000  -0.000   0.000 -16.341   0.000  -0.000  -0.000
-16.451   0.000   0.000   0.000   0.000 -16.539   0.000   0.000
  0.000 -16.451   0.000  -0.000  -0.000   0.000 -16.539   0.000
  0.000   0.000 -16.451   0.000  -0.000   0.000   0.000 -16.539
  0.000  -0.000   0.000 -16.451   0.000   0.000  -0.000   0.000
  0.000  -0.000  -0.000   0.000 -16.451   0.000  -0.000  -0.000
  0.000  -0.000  -0.000  -0.000   0.000   0.000  -0.000  -0.000
  0.000  -0.000  -0.000  -0.000   0.000   0.000  -0.000  -0.000
 -0.000   0.000  -0.000  -0.000  -0.000  -0.000   0.000  -0.000
 -0.000  -0.000  -0.000  -0.000   0.000  -0.000  -0.000  -0.000
 -0.000  -0.000  -0.000   0.000   0.000  -0.000  -0.000  -0.000
 -0.000   0.000  -0.000  -0.000  -0.000  -0.000   0.000  -0.000
 -0.000  -0.000  -0.000  -0.000   0.000  -0.000  -0.000  -0.000
 -0.000  -0.000  -0.000   0.000   0.000  -0.000  -0.000  -0.000
 total augmentation occupancy for first ion, spin component:           1
  2.000   0.000   0.000   0.000   0.000   0.000   0.000   0.000   0.000   0.000   0.000   0.000   0.000   0.000   0.000   0.000
  0.000   2.000   0.000   0.000   0.000   0.000   0.000   0.000   0.000   0.000   0.000   0.000   0.000   0.000   0.000   0.000
  0.000   0.000   2.000   0.000   0.000   0.000   0.000   0.000   0.000   0.000   0.000   0.000   0.000   0.000   0.000   0.000
  0.000   0.000   0.000   2.000   0.000   0.000   0.000   0.000   0.000   0.000   0.000   0.000   0.000   0.000   0.000   0.000
  0.000   0.000   0.000   0.000   2.000   0.000   0.000   0.000   0.000   0.000   0.000   0.000   0.000   0.000   0.000   0.000
  0.000   0.000   0.000   0.000   0.000   0.000   0.000   0.000   0.000   0.000   0.000   0.000   0.000   0.000   0.000   0.000
  0.000   0.000   0.000   0.000   0.000   0.000   0.000   0.000   0.000   0.000   0.000   0.000   0.000   0.000   0.000   0.000
  0.000   0.000   0.000   0.000   0.000   0.000   0.000   0.000   0.000   0.000   0.000   0.000   0.000   0.000   0.000   0.000
  0.000   0.000   0.000   0.000   0.000   0.000   0.000   0.000   0.000   0.000   0.000   0.000   0.000   0.000   0.000   0.000
  0.000   0.000   0.000   0.000   0.000   0.000   0.000   0.000   0.000   0.000   0.000   0.000   0.000   0.000   0.000   0.000
  0.000   0.000   0.000   0.000   0.000   0.000   0.000   0.000   0.000   0.000   2.000   0.000   0.000   0.000   0.000   0.000
  0.000   0.000   0.000   0.000   0.000   0.000   0.000   0.000   0.000   0.000   0.000   0.000   0.000   0.000   0.000   0.000
  0.000   0.000   0.000   0.000   0.000   0.000   0.000   0.000   0.000   0.000   0.000   0.000   0.000   0.000   0.000   0.000
  0.000   0.000   0.000   0.000   0.000   0.000   0.000   0.000   0.000   0.000   0.000   0.000   0.000   0.000   0.000   0.000
  0.000   0.000   0.000   0.000   0.000   0.000   0.000   0.000   0.000   0.000   0.000   0.000   0.000   0.000   0.000   0.000
  0.000   0.000   0.000   0.000   0.000   0.000   0.000   0.000   0.000   0.000   0.000   0.000   0.000   0.000   0.000   0.000
  0.000   0.000   0.000   0.000   0.000   0.000   0.000   0.000   0.000   0.000   0.000   0.000   0.000   0.000   0.000   0.000
  0.000   0.000   0.000   0.000   0.000   0.000   0.000   0.000   0.000   0.000   0.000   0.000   0.000   0.000   0.000   0.000


------------------------ aborting loop because EDIFF is reached ----------------------------------------


 


 total charge     
 
# of ion     s       p       d       tot
----------------------------------------
  1        0.442   0.313   9.574  10.329
  2        1.309   2.230   0.020   3.558
------------------------------------------------
tot        1.751   2.542   9.594  13.887
 
    CHARGE:  cpu time    0.02: real time    0.02
    FORLOC:  cpu time    0.00: real time    0.00
    FORHF :  cpu time  190.47: real time  190.94
    FORNL :  cpu time    0.05: real time    0.05
    STRESS:  cpu time    1.20: real time    1.20
    FORCOR:  cpu time    0.33: real time    0.33
    FORHAR:  cpu time    0.01: real time    0.01
    OFIELD:  cpu time    0.00: real time    0.00

  FORCE on cell =-STRESS in cart. coord.  units (eV):
  Direction    XX          YY          ZZ          XY          YZ          ZX
  --------------------------------------------------------------------------------------
  Alpha Z    50.17222    50.17222    50.17222
  Ewald    -348.27726  -348.27726  -348.27726     0.00000     0.00000    -0.00000
  Hartree   168.78980   168.78980   168.78980     0.00000    -0.00000    -0.00000
  E(xc)     -66.47785   -66.47785   -66.47785    -0.00000     0.00000     0.00000
  Local     -16.90490   -16.90490   -16.90490     0.00001    -0.00001    -0.00001
  n-local    62.84696    67.64603    66.82234    -1.73787    -2.78624    -1.16076
  augment    -0.14289    -0.14289    -0.14289    -0.00001     0.00001     0.00001
  Kinetic   200.92822   204.03214   204.22445    -1.61383    -2.87092    -1.21959
  Fock            NaN         NaN         NaN         NaN         NaN         NaN
  -------------------------------------------------------------------------------------
  Total           NaN         NaN         NaN         NaN         NaN         NaN
  in kB           NaN         NaN         NaN         NaN         NaN         NaN
  external pressure =         NaN kB  Pullay stress =        0.00 kB


 VOLUME and BASIS-vectors are now :
 -----------------------------------------------------------------------------
  energy-cutoff  :      500.00
  volume of cell :       68.11
      direct lattice vectors                 reciprocal lattice vectors
     3.241350000  3.241350000  0.000000000     0.154256714  0.154256714  0.154256714
     3.241350000  0.000000000 -3.241350000     0.154256714 -0.154256714 -0.154256714
     0.000000000  3.241350000 -3.241350000    -0.154256714  0.154256714 -0.154256714

  length of vectors
     4.583961130  4.583961130  4.583961130     0.267180466  0.267180466  0.267180466


 FORCES acting on ions
    electron-ion (+dipol)            ewald-force                    non-local-force                 convergence-correction
 -----------------------------------------------------------------------------------------------
   0.849E-06 0.848E-06 -.848E-06   -.153E-13 -.130E-13 0.167E-13   -.451E-16 -.278E-16 0.555E-16   -.499E-11 -.499E-11 0.498E-11
   0.686E-07 0.753E-07 -.753E-07   0.145E-13 0.128E-13 -.169E-13   0.386E-16 0.000E+00 -.971E-16   0.205E-13 0.408E-13 -.641E-13
 -----------------------------------------------------------------------------------------------
   0.918E-06 0.924E-06 -.923E-06   -.840E-15 -.129E-15 -.231E-15   -.651E-17 -.278E-16 -.416E-16   -.497E-11 -.495E-11 0.491E-11
 
 
 POSITION                                       TOTAL-FORCE (eV/Angst)
 -----------------------------------------------------------------------------------
      0.00000      0.00000      0.00000              NaN           NaN           NaN
      1.62068      1.62068     -1.62068              NaN           NaN           NaN
 -----------------------------------------------------------------------------------
    total drift:                                     NaN           NaN           NaN


--------------------------------------------------------------------------------------------------------



  FREE ENERGIE OF THE ION-ELECTRON SYSTEM (eV)
  ---------------------------------------------------
  free  energy   TOTEN  =        -6.02636546 eV

  energy  without entropy=       -6.02636546  energy(sigma->0) =       -6.02636546
 


--------------------------------------------------------------------------------------------------------


    POTLOK:  cpu time    0.53: real time    0.54


--------------------------------------------------------------------------------------------------------




--------------------------------------------------------------------------------------------------------


  
 reached required accuracy - stopping structural energy minimisation
 writing wavefunctions
     LOOP+:  cpu time 1175.47: real time 1178.12
    4ORBIT:  cpu time    0.00: real time    0.00
 


 total charge     
 
# of ion     s       p       d       tot
----------------------------------------
  1        0.442   0.313   9.574  10.329
  2        1.309   2.230   0.020   3.558
------------------------------------------------
tot        1.751   2.542   9.594  13.887
 

 total amount of memory used by VASP on root node   154079. kBytes
========================================================================

   base      :      30000. kBytes
   nonl-proj :      66608. kBytes
   fftplans  :       3408. kBytes
   grid      :       7216. kBytes
   one-center:         31. kBytes
   HF        :        129. kBytes
   nonlr-proj:       1516. kBytes
   wavefun   :      45171. kBytes
 
  
  
 General timing and accounting informations for this job:
 ========================================================
  
                  Total CPU time used (sec):     1288.071
                            User time (sec):     1286.501
                          System time (sec):        1.570
                         Elapsed time (sec):     1291.308
  
                   Maximum memory used (kb):      340324.
                   Average memory used (kb):           0.
  
                          Minor page faults:       530612
                          Major page faults:            3
                 Voluntary context switches:        17733
