PROCAR new format
# of k-points:  131         # of bands:  16         # of ions:   2

 k-point    1 :    0.00000000 0.00000000 0.00000000     weight = 0.00462963

band   1 # energy  -10.31032424 # occ.  2.00000000
 
ion      s      p      d    tot
  1  0.065  0.000  0.000  0.065
  2  0.556  0.000  0.000  0.556
tot  0.620  0.000  0.000  0.620
 
band   2 # energy   -7.75392506 # occ.  2.00000000
 
ion      s      p      d    tot
  1  0.000  0.000  0.914  0.914
  2  0.000  0.019  0.001  0.019
tot  0.000  0.019  0.915  0.934
 
band   3 # energy   -7.75392518 # occ.  2.00000000
 
ion      s      p      d    tot
  1  0.000  0.000  0.914  0.914
  2  0.000  0.019  0.001  0.019
tot  0.000  0.019  0.915  0.934
 
band   4 # energy   -7.75392500 # occ.  2.00000000
 
ion      s      p      d    tot
  1  0.000  0.000  0.914  0.914
  2  0.000  0.019  0.001  0.019
tot  0.000  0.019  0.915  0.934
 
band   5 # energy   -7.48711112 # occ.  2.00000000
 
ion      s      p      d    tot
  1  0.000  0.000  0.951  0.951
  2  0.000  0.000  0.001  0.001
tot  0.000  0.000  0.951  0.951
 
band   6 # energy   -7.48711111 # occ.  2.00000000
 
ion      s      p      d    tot
  1  0.000  0.000  0.951  0.951
  2  0.000  0.000  0.001  0.001
tot  0.000  0.000  0.951  0.951
 
band   7 # energy    1.83137436 # occ.  2.00000000
 
ion      s      p      d    tot
  1  0.000  0.028  0.071  0.099
  2  0.000  0.521  0.001  0.521
tot  0.000  0.549  0.071  0.620
 
band   8 # energy    1.83137437 # occ.  2.00000000
 
ion      s      p      d    tot
  1  0.000  0.028  0.071  0.099
  2  0.000  0.521  0.001  0.521
tot  0.000  0.549  0.071  0.620
 
band   9 # energy    1.83137451 # occ.  2.00000000
 
ion      s      p      d    tot
  1  0.000  0.028  0.071  0.099
  2  0.000  0.521  0.001  0.521
tot  0.000  0.549  0.071  0.620
 
band  10 # energy    3.37569917 # occ.  0.00000000
 
ion      s      p      d    tot
  1  0.295  0.000  0.000  0.295
  2  0.234  0.000  0.000  0.234
tot  0.529  0.000  0.000  0.529
 
band  11 # energy    7.30295078 # occ.  0.00000000
 
ion      s      p      d    tot
  1  0.000  0.235  0.001  0.236
  2  0.000  0.009  0.095  0.104
tot  0.000  0.244  0.096  0.340
 
band  12 # energy    7.30295083 # occ.  0.00000000
 
ion      s      p      d    tot
  1  0.000  0.235  0.001  0.236
  2  0.000  0.009  0.095  0.104
tot  0.000  0.244  0.096  0.340
 
band  13 # energy    7.30295145 # occ.  0.00000000
 
ion      s      p      d    tot
  1  0.000  0.235  0.001  0.236
  2  0.000  0.009  0.095  0.104
tot  0.000  0.244  0.096  0.340
 
band  14 # energy   10.33528036 # occ.  0.00000000
 
ion      s      p      d    tot
  1  0.253  0.000  0.000  0.253
  2  0.004  0.000  0.000  0.004
tot  0.257  0.000  0.000  0.257
 
band  15 # energy   12.17201790 # occ.  0.00000000
 
ion      s      p      d    tot
  1  0.000  0.000  0.093  0.093
  2  0.000  0.000  0.237  0.237
tot  0.000  0.000  0.330  0.330
 
band  16 # energy   12.17296570 # occ.  0.00000000
 
ion      s      p      d    tot
  1  0.000  0.000  0.093  0.093
  2  0.000  0.000  0.237  0.237
tot  0.000  0.000  0.330  0.330
 

 k-point    2 :    0.16666667 0.00000000 0.00000000     weight = 0.03703704

band   1 # energy  -10.20746477 # occ.  2.00000000
 
ion      s      p      d    tot
  1  0.054  0.003  0.026  0.082
  2  0.556  0.000  0.000  0.556
tot  0.609  0.003  0.026  0.638
 
band   2 # energy   -7.73558093 # occ.  2.00000000
 
ion      s      p      d    tot
  1  0.000  0.000  0.917  0.917
  2  0.000  0.018  0.001  0.018
tot  0.000  0.018  0.918  0.936
 
band   3 # energy   -7.73558075 # occ.  2.00000000
 
ion      s      p      d    tot
  1  0.000  0.000  0.917  0.917
  2  0.000  0.018  0.001  0.018
tot  0.000  0.018  0.918  0.936
 
band   4 # energy   -7.65225959 # occ.  2.00000000
 
ion      s      p      d    tot
  1  0.005  0.000  0.889  0.894
  2  0.011  0.018  0.001  0.029
tot  0.016  0.018  0.890  0.923
 
band   5 # energy   -7.48832507 # occ.  2.00000000
 
ion      s      p      d    tot
  1  0.000  0.000  0.950  0.950
  2  0.000  0.000  0.001  0.001
tot  0.000  0.000  0.951  0.951
 
band   6 # energy   -7.48832503 # occ.  2.00000000
 
ion      s      p      d    tot
  1  0.000  0.000  0.950  0.950
  2  0.000  0.000  0.001  0.001
tot  0.000  0.000  0.951  0.951
 
band   7 # energy    0.06728711 # occ.  2.00000000
 
ion      s      p      d    tot
  1  0.097  0.028  0.052  0.177
  2  0.058  0.320  0.002  0.380
tot  0.155  0.348  0.054  0.558
 
band   8 # energy    1.59041418 # occ.  2.00000000
 
ion      s      p      d    tot
  1  0.000  0.039  0.062  0.102
  2  0.000  0.499  0.001  0.501
tot  0.000  0.539  0.064  0.602
 
band   9 # energy    1.59041412 # occ.  2.00000000
 
ion      s      p      d    tot
  1  0.000  0.039  0.062  0.102
  2  0.000  0.499  0.001  0.501
tot  0.000  0.539  0.064  0.602
 
band  10 # energy    4.45941587 # occ.  0.00000000
 
ion      s      p      d    tot
  1  0.226  0.028  0.003  0.257
  2  0.146  0.112  0.008  0.267
tot  0.372  0.141  0.012  0.524
 
band  11 # energy    7.40699607 # occ.  0.00000000
 
ion      s      p      d    tot
  1  0.053  0.120  0.012  0.184
  2  0.016  0.103  0.064  0.182
tot  0.069  0.223  0.075  0.367
 
band  12 # energy    7.66451115 # occ.  0.00000000
 
ion      s      p      d    tot
  1  0.000  0.224  0.006  0.229
  2  0.000  0.029  0.094  0.122
tot  0.000  0.252  0.100  0.352
 
band  13 # energy    7.66451173 # occ.  0.00000000
 
ion      s      p      d    tot
  1  0.000  0.224  0.006  0.229
  2  0.000  0.029  0.094  0.122
tot  0.000  0.252  0.100  0.352
 
band  14 # energy   11.23141140 # occ.  0.00000000
 
ion      s      p      d    tot
  1  0.000  0.007  0.071  0.078
  2  0.000  0.001  0.146  0.147
tot  0.000  0.008  0.217  0.225
 
band  15 # energy   11.23141364 # occ.  0.00000000
 
ion      s      p      d    tot
  1  0.000  0.007  0.071  0.078
  2  0.000  0.001  0.146  0.147
tot  0.000  0.008  0.217  0.225
 
band  16 # energy   11.30541224 # occ.  0.00000000
 
ion      s      p      d    tot
  1  0.114  0.053  0.006  0.172
  2  0.003  0.007  0.009  0.019
tot  0.117  0.060  0.014  0.191
 

 k-point    3 :    0.33333333 0.00000000 0.00000000     weight = 0.03703704

band   1 # energy  -10.01131219 # occ.  2.00000000
 
ion      s      p      d    tot
  1  0.029  0.007  0.098  0.134
  2  0.545  0.000  0.000  0.545
tot  0.574  0.008  0.098  0.679
 
band   2 # energy   -7.70344922 # occ.  2.00000000
 
ion      s      p      d    tot
  1  0.000  0.000  0.922  0.922
  2  0.000  0.015  0.001  0.016
tot  0.000  0.016  0.923  0.938
 
band   3 # energy   -7.70344913 # occ.  2.00000000
 
ion      s      p      d    tot
  1  0.000  0.000  0.922  0.922
  2  0.000  0.015  0.001  0.016
tot  0.000  0.016  0.923  0.938
 
band   4 # energy   -7.48523737 # occ.  2.00000000
 
ion      s      p      d    tot
  1  0.000  0.000  0.951  0.951
  2  0.000  0.000  0.001  0.001
tot  0.000  0.000  0.952  0.952
 
band   5 # energy   -7.48523732 # occ.  2.00000000
 
ion      s      p      d    tot
  1  0.000  0.000  0.951  0.951
  2  0.000  0.000  0.001  0.001
tot  0.000  0.000  0.952  0.952
 
band   6 # energy   -7.32302284 # occ.  2.00000000
 
ion      s      p      d    tot
  1  0.011  0.001  0.831  0.843
  2  0.054  0.011  0.001  0.066
tot  0.065  0.012  0.832  0.909
 
band   7 # energy   -1.98222487 # occ.  2.00000000
 
ion      s      p      d    tot
  1  0.135  0.029  0.030  0.193
  2  0.036  0.264  0.002  0.301
tot  0.170  0.292  0.032  0.494
 
band   8 # energy    1.18162153 # occ.  2.00000000
 
ion      s      p      d    tot
  1  0.000  0.054  0.049  0.103
  2  0.000  0.473  0.002  0.475
tot  0.000  0.528  0.051  0.578
 
band   9 # energy    1.18162148 # occ.  2.00000000
 
ion      s      p      d    tot
  1  0.000  0.054  0.049  0.103
  2  0.000  0.473  0.002  0.475
tot  0.000  0.528  0.051  0.578
 
band  10 # energy    4.56134596 # occ.  0.00000000
 
ion      s      p      d    tot
  1  0.239  0.037  0.005  0.281
  2  0.104  0.048  0.026  0.179
tot  0.343  0.086  0.031  0.460
 
band  11 # energy    7.94281236 # occ.  0.00000000
 
ion      s      p      d    tot
  1  0.000  0.174  0.022  0.196
  2  0.000  0.035  0.093  0.128
tot  0.000  0.209  0.115  0.324
 
band  12 # energy    7.94281277 # occ.  0.00000000
 
ion      s      p      d    tot
  1  0.000  0.174  0.022  0.196
  2  0.000  0.035  0.093  0.128
tot  0.000  0.209  0.115  0.324
 
band  13 # energy    9.03254992 # occ.  0.00000000
 
ion      s      p      d    tot
  1  0.037  0.052  0.014  0.103
  2  0.024  0.244  0.026  0.294
tot  0.061  0.296  0.040  0.396
 
band  14 # energy   10.85298046 # occ.  0.00000000
 
ion      s      p      d    tot
  1  0.092  0.014  0.013  0.119
  2  0.012  0.007  0.010  0.030
tot  0.104  0.021  0.023  0.149
 
band  15 # energy   11.69438389 # occ.  0.00000000
 
ion      s      p      d    tot
  1  0.000  0.042  0.058  0.100
  2  0.000  0.019  0.150  0.169
tot  0.000  0.061  0.208  0.269
 
band  16 # energy   11.69438491 # occ.  0.00000000
 
ion      s      p      d    tot
  1  0.000  0.042  0.058  0.100
  2  0.000  0.019  0.150  0.169
tot  0.000  0.061  0.208  0.269
 

 k-point    4 :    0.50000000 0.00000000 0.00000000     weight = 0.01851852

band   1 # energy   -9.92116597 # occ.  2.00000000
 
ion      s      p      d    tot
  1  0.016  0.010  0.143  0.169
  2  0.534  0.000  0.000  0.534
tot  0.550  0.010  0.143  0.703
 
band   2 # energy   -7.69050042 # occ.  2.00000000
 
ion      s      p      d    tot
  1  0.000  0.000  0.924  0.924
  2  0.000  0.014  0.001  0.015
tot  0.000  0.015  0.924  0.939
 
band   3 # energy   -7.69050046 # occ.  2.00000000
 
ion      s      p      d    tot
  1  0.000  0.000  0.924  0.924
  2  0.000  0.014  0.001  0.015
tot  0.000  0.015  0.924  0.939
 
band   4 # energy   -7.48004977 # occ.  2.00000000
 
ion      s      p      d    tot
  1  0.000  0.000  0.952  0.952
  2  0.000  0.000  0.001  0.001
tot  0.000  0.000  0.953  0.953
 
band   5 # energy   -7.48004971 # occ.  2.00000000
 
ion      s      p      d    tot
  1  0.000  0.000  0.952  0.952
  2  0.000  0.000  0.001  0.001
tot  0.000  0.000  0.953  0.953
 
band   6 # energy   -7.04515741 # occ.  2.00000000
 
ion      s      p      d    tot
  1  0.007  0.003  0.811  0.821
  2  0.096  0.001  0.001  0.098
tot  0.103  0.003  0.812  0.919
 
band   7 # energy   -2.90694565 # occ.  2.00000000
 
ion      s      p      d    tot
  1  0.157  0.026  0.000  0.183
  2  0.006  0.257  0.001  0.265
tot  0.163  0.284  0.002  0.448
 
band   8 # energy    1.00263833 # occ.  2.00000000
 
ion      s      p      d    tot
  1  0.000  0.060  0.043  0.103
  2  0.000  0.465  0.001  0.466
tot  0.000  0.525  0.044  0.569
 
band   9 # energy    1.00263822 # occ.  2.00000000
 
ion      s      p      d    tot
  1  0.000  0.060  0.043  0.103
  2  0.000  0.465  0.001  0.466
tot  0.000  0.525  0.044  0.569
 
band  10 # energy    4.44290017 # occ.  0.00000000
 
ion      s      p      d    tot
  1  0.248  0.029  0.009  0.285
  2  0.098  0.037  0.030  0.165
tot  0.346  0.066  0.038  0.450
 
band  11 # energy    7.88479535 # occ.  0.00000000
 
ion      s      p      d    tot
  1  0.000  0.147  0.030  0.177
  2  0.000  0.030  0.093  0.123
tot  0.000  0.177  0.123  0.300
 
band  12 # energy    7.88479556 # occ.  0.00000000
 
ion      s      p      d    tot
  1  0.000  0.147  0.030  0.177
  2  0.000  0.030  0.093  0.123
tot  0.000  0.177  0.123  0.300
 
band  13 # energy    9.80967432 # occ.  0.00000000
 
ion      s      p      d    tot
  1  0.001  0.030  0.023  0.054
  2  0.000  0.148  0.001  0.150
tot  0.002  0.178  0.024  0.204
 
band  14 # energy   11.57954452 # occ.  0.00000000
 
ion      s      p      d    tot
  1  0.124  0.002  0.000  0.126
  2  0.003  0.228  0.008  0.238
tot  0.127  0.229  0.008  0.364
 
band  15 # energy   13.24983188 # occ.  0.00000000
 
ion      s      p      d    tot
  1  0.000  0.099  0.019  0.118
  2  0.000  0.034  0.172  0.206
tot  0.000  0.133  0.191  0.324
 
band  16 # energy   13.25021132 # occ.  0.00000000
 
ion      s      p      d    tot
  1  0.000  0.099  0.019  0.119
  2  0.000  0.035  0.170  0.205
tot  0.000  0.134  0.190  0.324
 

 k-point    5 :    0.16666667 0.16666667 0.00000000     weight = 0.02777778

band   1 # energy  -10.17392581 # occ.  2.00000000
 
ion      s      p      d    tot
  1  0.050  0.003  0.035  0.088
  2  0.555  0.000  0.000  0.555
tot  0.605  0.004  0.035  0.644
 
band   2 # energy   -7.71704425 # occ.  2.00000000
 
ion      s      p      d    tot
  1  0.000  0.000  0.920  0.920
  2  0.000  0.016  0.001  0.017
tot  0.000  0.017  0.921  0.937
 
band   3 # energy   -7.71704413 # occ.  2.00000000
 
ion      s      p      d    tot
  1  0.000  0.000  0.920  0.920
  2  0.000  0.016  0.001  0.017
tot  0.000  0.017  0.921  0.937
 
band   4 # energy   -7.64736555 # occ.  2.00000000
 
ion      s      p      d    tot
  1  0.006  0.000  0.879  0.885
  2  0.013  0.019  0.000  0.032
tot  0.019  0.019  0.879  0.918
 
band   5 # energy   -7.49309739 # occ.  2.00000000
 
ion      s      p      d    tot
  1  0.000  0.000  0.946  0.946
  2  0.002  0.000  0.001  0.003
tot  0.002  0.000  0.946  0.949
 
band   6 # energy   -7.47995037 # occ.  2.00000000
 
ion      s      p      d    tot
  1  0.000  0.000  0.952  0.952
  2  0.000  0.000  0.001  0.001
tot  0.000  0.000  0.952  0.952
 
band   7 # energy    0.08549800 # occ.  2.00000000
 
ion      s      p      d    tot
  1  0.127  0.015  0.058  0.201
  2  0.074  0.305  0.002  0.381
tot  0.201  0.320  0.060  0.582
 
band   8 # energy    1.19152067 # occ.  2.00000000
 
ion      s      p      d    tot
  1  0.000  0.052  0.053  0.104
  2  0.000  0.463  0.002  0.465
tot  0.000  0.515  0.055  0.570
 
band   9 # energy    1.19152061 # occ.  2.00000000
 
ion      s      p      d    tot
  1  0.000  0.052  0.053  0.104
  2  0.000  0.463  0.002  0.465
tot  0.000  0.515  0.055  0.570
 
band  10 # energy    5.11861170 # occ.  0.00000000
 
ion      s      p      d    tot
  1  0.213  0.009  0.011  0.233
  2  0.121  0.216  0.004  0.340
tot  0.334  0.225  0.015  0.574
 
band  11 # energy    6.33753351 # occ.  0.00000000
 
ion      s      p      d    tot
  1  0.045  0.157  0.004  0.206
  2  0.015  0.002  0.068  0.084
tot  0.060  0.159  0.072  0.291
 
band  12 # energy    8.31227211 # occ.  0.00000000
 
ion      s      p      d    tot
  1  0.000  0.206  0.010  0.217
  2  0.000  0.074  0.096  0.169
tot  0.000  0.280  0.106  0.386
 
band  13 # energy    8.31227304 # occ.  0.00000000
 
ion      s      p      d    tot
  1  0.000  0.206  0.010  0.217
  2  0.000  0.074  0.096  0.169
tot  0.000  0.280  0.106  0.386
 
band  14 # energy    9.85967683 # occ.  0.00000000
 
ion      s      p      d    tot
  1  0.001  0.006  0.060  0.067
  2  0.009  0.010  0.088  0.107
tot  0.010  0.016  0.147  0.174
 
band  15 # energy   12.15151973 # occ.  0.00000000
 
ion      s      p      d    tot
  1  0.171  0.092  0.004  0.267
  2  0.000  0.005  0.028  0.033
tot  0.171  0.097  0.032  0.300
 
band  16 # energy   12.42946078 # occ.  0.00000000
 
ion      s      p      d    tot
  1  0.000  0.000  0.082  0.082
  2  0.000  0.000  0.246  0.246
tot  0.000  0.000  0.329  0.329
 

 k-point    6 :    0.33333333 0.16666667 0.00000000     weight = 0.11111111

band   1 # energy  -10.01181983 # occ.  2.00000000
 
ion      s      p      d    tot
  1  0.029  0.008  0.095  0.132
  2  0.546  0.000  0.000  0.546
tot  0.576  0.008  0.095  0.678
 
band   2 # energy   -7.69110422 # occ.  2.00000000
 
ion      s      p      d    tot
  1  0.000  0.000  0.923  0.923
  2  0.000  0.015  0.001  0.016
tot  0.000  0.015  0.923  0.939
 
band   3 # energy   -7.68120507 # occ.  2.00000000
 
ion      s      p      d    tot
  1  0.000  0.000  0.926  0.926
  2  0.000  0.014  0.001  0.015
tot  0.000  0.014  0.926  0.941
 
band   4 # energy   -7.52848636 # occ.  2.00000000
 
ion      s      p      d    tot
  1  0.001  0.000  0.930  0.932
  2  0.003  0.005  0.001  0.008
tot  0.004  0.005  0.931  0.940
 
band   5 # energy   -7.47482230 # occ.  2.00000000
 
ion      s      p      d    tot
  1  0.000  0.000  0.952  0.952
  2  0.000  0.000  0.000  0.000
tot  0.000  0.000  0.953  0.953
 
band   6 # energy   -7.35881638 # occ.  2.00000000
 
ion      s      p      d    tot
  1  0.011  0.001  0.843  0.854
  2  0.047  0.010  0.001  0.058
tot  0.057  0.011  0.844  0.912
 
band   7 # energy   -1.46929776 # occ.  2.00000000
 
ion      s      p      d    tot
  1  0.149  0.021  0.043  0.213
  2  0.051  0.268  0.002  0.320
tot  0.200  0.288  0.045  0.533
 
band   8 # energy    0.65688467 # occ.  2.00000000
 
ion      s      p      d    tot
  1  0.019  0.056  0.043  0.118
  2  0.006  0.412  0.003  0.421
tot  0.026  0.468  0.046  0.539
 
band   9 # energy    0.75145580 # occ.  2.00000000
 
ion      s      p      d    tot
  1  0.000  0.063  0.040  0.104
  2  0.000  0.439  0.002  0.441
tot  0.000  0.503  0.042  0.545
 
band  10 # energy    5.53309365 # occ.  0.00000000
 
ion      s      p      d    tot
  1  0.203  0.033  0.013  0.249
  2  0.065  0.149  0.028  0.243
tot  0.269  0.182  0.041  0.492
 
band  11 # energy    6.70475280 # occ.  0.00000000
 
ion      s      p      d    tot
  1  0.055  0.119  0.011  0.186
  2  0.035  0.079  0.049  0.163
tot  0.090  0.198  0.061  0.349
 
band  12 # energy    8.39946141 # occ.  0.00000000
 
ion      s      p      d    tot
  1  0.000  0.087  0.032  0.119
  2  0.009  0.065  0.076  0.150
tot  0.010  0.152  0.108  0.269
 
band  13 # energy    8.90476090 # occ.  0.00000000
 
ion      s      p      d    tot
  1  0.000  0.172  0.021  0.192
  2  0.000  0.087  0.097  0.184
tot  0.000  0.258  0.118  0.376
 
band  14 # energy   10.71592344 # occ.  0.00000000
 
ion      s      p      d    tot
  1  0.013  0.073  0.038  0.124
  2  0.013  0.124  0.079  0.215
tot  0.025  0.197  0.117  0.339
 
band  15 # energy   12.61260929 # occ.  0.00000000
 
ion      s      p      d    tot
  1  0.000  0.030  0.059  0.088
  2  0.000  0.013  0.202  0.215
tot  0.000  0.042  0.261  0.303
 
band  16 # energy   12.63232702 # occ.  0.00000000
 
ion      s      p      d    tot
  1  0.058  0.044  0.023  0.125
  2  0.003  0.004  0.050  0.057
tot  0.061  0.048  0.073  0.182
 

 k-point    7 :    0.50000000 0.16666667 0.00000000     weight = 0.11111111

band   1 # energy   -9.89333844 # occ.  2.00000000
 
ion      s      p      d    tot
  1  0.012  0.011  0.156  0.178
  2  0.531  0.000  0.000  0.531
tot  0.543  0.011  0.156  0.710
 
band   2 # energy   -7.67566108 # occ.  2.00000000
 
ion      s      p      d    tot
  1  0.000  0.000  0.925  0.926
  2  0.000  0.013  0.001  0.014
tot  0.000  0.013  0.926  0.940
 
band   3 # energy   -7.66544217 # occ.  2.00000000
 
ion      s      p      d    tot
  1  0.000  0.000  0.928  0.928
  2  0.000  0.013  0.001  0.014
tot  0.000  0.013  0.929  0.942
 
band   4 # energy   -7.50310187 # occ.  2.00000000
 
ion      s      p      d    tot
  1  0.000  0.000  0.947  0.947
  2  0.000  0.001  0.001  0.001
tot  0.000  0.001  0.948  0.949
 
band   5 # energy   -7.47694271 # occ.  2.00000000
 
ion      s      p      d    tot
  1  0.000  0.000  0.952  0.952
  2  0.000  0.000  0.000  0.000
tot  0.000  0.000  0.953  0.953
 
band   6 # energy   -7.01084984 # occ.  2.00000000
 
ion      s      p      d    tot
  1  0.008  0.003  0.797  0.807
  2  0.103  0.003  0.001  0.107
tot  0.111  0.006  0.797  0.914
 
band   7 # energy   -2.66855102 # occ.  2.00000000
 
ion      s      p      d    tot
  1  0.172  0.022  0.007  0.202
  2  0.011  0.257  0.002  0.270
tot  0.184  0.279  0.010  0.472
 
band   8 # energy    0.09682652 # occ.  2.00000000
 
ion      s      p      d    tot
  1  0.031  0.058  0.036  0.125
  2  0.009  0.375  0.003  0.387
tot  0.040  0.432  0.039  0.512
 
band   9 # energy    0.66035523 # occ.  2.00000000
 
ion      s      p      d    tot
  1  0.000  0.067  0.036  0.102
  2  0.000  0.440  0.001  0.441
tot  0.000  0.507  0.037  0.544
 
band  10 # energy    5.43067448 # occ.  0.00000000
 
ion      s      p      d    tot
  1  0.200  0.039  0.014  0.253
  2  0.064  0.116  0.033  0.213
tot  0.264  0.154  0.048  0.466
 
band  11 # energy    7.36943641 # occ.  0.00000000
 
ion      s      p      d    tot
  1  0.032  0.087  0.025  0.145
  2  0.009  0.083  0.062  0.154
tot  0.041  0.170  0.088  0.299
 
band  12 # energy    8.68890740 # occ.  0.00000000
 
ion      s      p      d    tot
  1  0.000  0.140  0.030  0.170
  2  0.000  0.063  0.097  0.160
tot  0.000  0.203  0.127  0.330
 
band  13 # energy    9.35645551 # occ.  0.00000000
 
ion      s      p      d    tot
  1  0.025  0.077  0.028  0.129
  2  0.018  0.153  0.054  0.225
tot  0.042  0.229  0.082  0.354
 
band  14 # energy   11.67447326 # occ.  0.00000000
 
ion      s      p      d    tot
  1  0.009  0.070  0.028  0.107
  2  0.003  0.101  0.036  0.140
tot  0.012  0.172  0.063  0.247
 
band  15 # energy   12.92532075 # occ.  0.00000000
 
ion      s      p      d    tot
  1  0.061  0.037  0.022  0.119
  2  0.008  0.085  0.039  0.132
tot  0.069  0.123  0.060  0.252
 
band  16 # energy   13.33264454 # occ.  0.00000000
 
ion      s      p      d    tot
  1  0.000  0.092  0.028  0.120
  2  0.000  0.028  0.194  0.222
tot  0.000  0.119  0.222  0.341
 

 k-point    8 :   -0.33333333 0.16666667 0.00000000     weight = 0.11111111

band   1 # energy   -9.92194309 # occ.  2.00000000
 
ion      s      p      d    tot
  1  0.016  0.010  0.140  0.166
  2  0.535  0.000  0.000  0.536
tot  0.552  0.010  0.140  0.702
 
band   2 # energy   -7.67958932 # occ.  2.00000000
 
ion      s      p      d    tot
  1  0.000  0.000  0.926  0.926
  2  0.000  0.014  0.001  0.015
tot  0.000  0.015  0.927  0.941
 
band   3 # energy   -7.67699596 # occ.  2.00000000
 
ion      s      p      d    tot
  1  0.000  0.000  0.926  0.926
  2  0.000  0.013  0.001  0.014
tot  0.000  0.013  0.927  0.940
 
band   4 # energy   -7.49112276 # occ.  2.00000000
 
ion      s      p      d    tot
  1  0.000  0.000  0.950  0.950
  2  0.000  0.000  0.001  0.001
tot  0.000  0.000  0.951  0.951
 
band   5 # energy   -7.48969958 # occ.  2.00000000
 
ion      s      p      d    tot
  1  0.000  0.000  0.949  0.949
  2  0.000  0.000  0.001  0.001
tot  0.000  0.000  0.950  0.950
 
band   6 # energy   -7.10464009 # occ.  2.00000000
 
ion      s      p      d    tot
  1  0.010  0.002  0.803  0.816
  2  0.087  0.007  0.001  0.094
tot  0.097  0.009  0.804  0.910
 
band   7 # energy   -2.37807495 # occ.  2.00000000
 
ion      s      p      d    tot
  1  0.165  0.023  0.018  0.205
  2  0.023  0.258  0.002  0.283
tot  0.188  0.281  0.020  0.489
 
band   8 # energy   -0.05289900 # occ.  2.00000000
 
ion      s      p      d    tot
  1  0.027  0.061  0.034  0.121
  2  0.007  0.368  0.003  0.378
tot  0.033  0.429  0.036  0.498
 
band   9 # energy    0.97876648 # occ.  2.00000000
 
ion      s      p      d    tot
  1  0.000  0.060  0.043  0.103
  2  0.000  0.461  0.002  0.462
tot  0.000  0.521  0.045  0.566
 
band  10 # energy    5.50925191 # occ.  0.00000000
 
ion      s      p      d    tot
  1  0.214  0.043  0.009  0.267
  2  0.072  0.120  0.031  0.223
tot  0.286  0.163  0.040  0.490
 
band  11 # energy    7.60708144 # occ.  0.00000000
 
ion      s      p      d    tot
  1  0.016  0.084  0.028  0.128
  2  0.006  0.075  0.066  0.147
tot  0.021  0.159  0.094  0.275
 
band  12 # energy    8.38672188 # occ.  0.00000000
 
ion      s      p      d    tot
  1  0.000  0.166  0.022  0.188
  2  0.000  0.049  0.093  0.142
tot  0.000  0.215  0.115  0.330
 
band  13 # energy    9.13160821 # occ.  0.00000000
 
ion      s      p      d    tot
  1  0.040  0.059  0.022  0.120
  2  0.024  0.212  0.039  0.275
tot  0.063  0.271  0.061  0.395
 
band  14 # energy   11.26087580 # occ.  0.00000000
 
ion      s      p      d    tot
  1  0.000  0.044  0.061  0.105
  2  0.000  0.015  0.147  0.162
tot  0.000  0.060  0.208  0.267
 
band  15 # energy   12.08181561 # occ.  0.00000000
 
ion      s      p      d    tot
  1  0.029  0.114  0.016  0.159
  2  0.004  0.041  0.034  0.079
tot  0.032  0.155  0.050  0.238
 
band  16 # energy   13.22977535 # occ.  0.00000000
 
ion      s      p      d    tot
  1  0.031  0.050  0.034  0.115
  2  0.022  0.034  0.069  0.125
tot  0.053  0.085  0.102  0.240
 

 k-point    9 :   -0.16666667 0.16666667 0.00000000     weight = 0.05555556

band   1 # energy  -10.07509463 # occ.  2.00000000
 
ion      s      p      d    tot
  1  0.038  0.006  0.070  0.113
  2  0.551  0.000  0.000  0.551
tot  0.588  0.006  0.070  0.664
 
band   2 # energy   -7.71477236 # occ.  2.00000000
 
ion      s      p      d    tot
  1  0.000  0.000  0.920  0.921
  2  0.000  0.017  0.001  0.017
tot  0.000  0.017  0.921  0.938
 
band   3 # energy   -7.69987819 # occ.  2.00000000
 
ion      s      p      d    tot
  1  0.000  0.000  0.922  0.923
  2  0.000  0.015  0.001  0.015
tot  0.000  0.015  0.923  0.938
 
band   4 # energy   -7.51203793 # occ.  2.00000000
 
ion      s      p      d    tot
  1  0.005  0.000  0.903  0.908
  2  0.013  0.009  0.000  0.022
tot  0.018  0.009  0.903  0.930
 
band   5 # energy   -7.49645783 # occ.  2.00000000
 
ion      s      p      d    tot
  1  0.000  0.000  0.949  0.949
  2  0.000  0.000  0.001  0.001
tot  0.000  0.000  0.950  0.950
 
band   6 # energy   -7.44605405 # occ.  2.00000000
 
ion      s      p      d    tot
  1  0.006  0.000  0.897  0.903
  2  0.021  0.007  0.001  0.029
tot  0.027  0.007  0.898  0.932
 
band   7 # energy   -1.01449396 # occ.  2.00000000
 
ion      s      p      d    tot
  1  0.135  0.023  0.047  0.205
  2  0.059  0.278  0.002  0.339
tot  0.194  0.302  0.049  0.544
 
band   8 # energy    0.51536210 # occ.  2.00000000
 
ion      s      p      d    tot
  1  0.012  0.060  0.041  0.113
  2  0.001  0.403  0.003  0.407
tot  0.013  0.463  0.044  0.520
 
band   9 # energy    1.45959841 # occ.  2.00000000
 
ion      s      p      d    tot
  1  0.000  0.046  0.057  0.102
  2  0.000  0.494  0.001  0.496
tot  0.000  0.540  0.058  0.598
 
band  10 # energy    5.35022472 # occ.  0.00000000
 
ion      s      p      d    tot
  1  0.224  0.040  0.003  0.267
  2  0.105  0.152  0.016  0.273
tot  0.329  0.192  0.019  0.540
 
band  11 # energy    7.35183988 # occ.  0.00000000
 
ion      s      p      d    tot
  1  0.047  0.100  0.020  0.168
  2  0.023  0.096  0.060  0.180
tot  0.070  0.197  0.080  0.347
 
band  12 # energy    7.92165301 # occ.  0.00000000
 
ion      s      p      d    tot
  1  0.000  0.223  0.007  0.230
  2  0.000  0.028  0.091  0.120
tot  0.000  0.251  0.099  0.350
 
band  13 # energy    8.21285009 # occ.  0.00000000
 
ion      s      p      d    tot
  1  0.004  0.109  0.019  0.132
  2  0.002  0.104  0.071  0.177
tot  0.006  0.213  0.089  0.309
 
band  14 # energy   10.43162917 # occ.  0.00000000
 
ion      s      p      d    tot
  1  0.000  0.001  0.072  0.074
  2  0.000  0.002  0.134  0.136
tot  0.000  0.003  0.206  0.209
 
band  15 # energy   11.83925033 # occ.  0.00000000
 
ion      s      p      d    tot
  1  0.002  0.092  0.043  0.137
  2  0.009  0.053  0.070  0.131
tot  0.011  0.145  0.112  0.268
 
band  16 # energy   12.71231865 # occ.  0.00000000
 
ion      s      p      d    tot
  1  0.106  0.080  0.005  0.190
  2  0.001  0.020  0.040  0.061
tot  0.107  0.100  0.045  0.251
 

 k-point   10 :    0.33333333 0.33333333 0.00000000     weight = 0.02777778

band   1 # energy   -9.92132671 # occ.  2.00000000
 
ion      s      p      d    tot
  1  0.017  0.010  0.136  0.163
  2  0.537  0.000  0.000  0.538
tot  0.554  0.010  0.136  0.700
 
band   2 # energy   -7.63767946 # occ.  2.00000000
 
ion      s      p      d    tot
  1  0.000  0.000  0.933  0.934
  2  0.000  0.011  0.001  0.012
tot  0.000  0.011  0.934  0.946
 
band   3 # energy   -7.63767932 # occ.  2.00000000
 
ion      s      p      d    tot
  1  0.000  0.000  0.933  0.934
  2  0.000  0.011  0.001  0.012
tot  0.000  0.011  0.934  0.946
 
band   4 # energy   -7.56654007 # occ.  2.00000000
 
ion      s      p      d    tot
  1  0.002  0.000  0.923  0.925
  2  0.002  0.007  0.000  0.009
tot  0.003  0.007  0.923  0.934
 
band   5 # energy   -7.46560328 # occ.  2.00000000
 
ion      s      p      d    tot
  1  0.000  0.000  0.954  0.954
  2  0.000  0.000  0.000  0.000
tot  0.000  0.000  0.954  0.954
 
band   6 # energy   -7.20984718 # occ.  2.00000000
 
ion      s      p      d    tot
  1  0.011  0.002  0.800  0.814
  2  0.077  0.009  0.001  0.086
tot  0.088  0.011  0.801  0.900
 
band   7 # energy   -1.85409832 # occ.  2.00000000
 
ion      s      p      d    tot
  1  0.192  0.007  0.048  0.247
  2  0.045  0.252  0.003  0.300
tot  0.237  0.259  0.051  0.547
 
band   8 # energy    0.22919174 # occ.  2.00000000
 
ion      s      p      d    tot
  1  0.000  0.073  0.027  0.100
  2  0.000  0.413  0.001  0.414
tot  0.000  0.486  0.028  0.514
 
band   9 # energy    0.22919178 # occ.  2.00000000
 
ion      s      p      d    tot
  1  0.000  0.073  0.027  0.100
  2  0.000  0.413  0.001  0.414
tot  0.000  0.486  0.028  0.514
 
band  10 # energy    5.32579655 # occ.  0.00000000
 
ion      s      p      d    tot
  1  0.116  0.074  0.021  0.211
  2  0.011  0.028  0.056  0.095
tot  0.127  0.102  0.076  0.306
 
band  11 # energy    5.76374544 # occ.  0.00000000
 
ion      s      p      d    tot
  1  0.114  0.039  0.026  0.179
  2  0.050  0.106  0.032  0.188
tot  0.164  0.145  0.059  0.367
 
band  12 # energy   10.12651590 # occ.  0.00000000
 
ion      s      p      d    tot
  1  0.051  0.005  0.031  0.087
  2  0.045  0.189  0.037  0.271
tot  0.097  0.193  0.068  0.358
 
band  13 # energy   10.41092935 # occ.  0.00000000
 
ion      s      p      d    tot
  1  0.000  0.178  0.018  0.196
  2  0.000  0.141  0.095  0.236
tot  0.000  0.320  0.113  0.433
 
band  14 # energy   10.41092975 # occ.  0.00000000
 
ion      s      p      d    tot
  1  0.000  0.178  0.018  0.196
  2  0.000  0.141  0.095  0.236
tot  0.000  0.320  0.113  0.433
 
band  15 # energy   13.13618057 # occ.  0.00000000
 
ion      s      p      d    tot
  1  0.000  0.000  0.047  0.047
  2  0.000  0.000  0.285  0.285
tot  0.000  0.000  0.331  0.331
 