  96  96   0   0
  0.2080188E+02  0.1257760E-08  0.1245754E-08  0.1274818E-08  0.5000000E-15
  1.000000000000000E-004
  CAR 
 MAPbI3-Cubic                            
      9.99164182    -22.12344318  301      1.05294316      1.00000000
    -22.123  0.0000E+00  0.0000E+00
    -22.016  0.0000E+00  0.0000E+00
    -21.909  0.0000E+00  0.0000E+00
    -21.802  0.0000E+00  0.0000E+00
    -21.695  0.0000E+00  0.0000E+00
    -21.588  0.0000E+00  0.0000E+00
    -21.481  0.0000E+00  0.0000E+00
    -21.374  0.0000E+00  0.0000E+00
    -21.267  0.0000E+00  0.0000E+00
    -21.160  0.0000E+00  0.0000E+00
    -21.053  0.0000E+00  0.0000E+00
    -20.946  0.0000E+00  0.0000E+00
    -20.839  0.0000E+00  0.0000E+00
    -20.732  0.0000E+00  0.0000E+00
    -20.625  0.0000E+00  0.1600E+02
    -20.518  0.0000E+00  0.1600E+02
    -20.411  0.0000E+00  0.1600E+02
    -20.304  0.0000E+00  0.1600E+02
    -20.197  0.0000E+00  0.1600E+02
    -20.089  0.0000E+00  0.1600E+02
    -19.982  0.0000E+00  0.1600E+02
    -19.875  0.0000E+00  0.1600E+02
    -19.768  0.0000E+00  0.1600E+02
    -19.661  0.0000E+00  0.1600E+02
    -19.554  0.0000E+00  0.1600E+02
    -19.447  0.0000E+00  0.1600E+02
    -19.340  0.0000E+00  0.1600E+02
    -19.233  0.0000E+00  0.1600E+02
    -19.126  0.0000E+00  0.1600E+02
    -19.019  0.0000E+00  0.1600E+02
    -18.912  0.0000E+00  0.1600E+02
    -18.805  0.0000E+00  0.1600E+02
    -18.698  0.0000E+00  0.1600E+02
    -18.591  0.0000E+00  0.1600E+02
    -18.484  0.0000E+00  0.1600E+02
    -18.377  0.0000E+00  0.1600E+02
    -18.270  0.0000E+00  0.1600E+02
    -18.163  0.0000E+00  0.1600E+02
    -18.056  0.0000E+00  0.1600E+02
    -17.948  0.0000E+00  0.1600E+02
    -17.841  0.0000E+00  0.1600E+02
    -17.734  0.0000E+00  0.1600E+02
    -17.627  0.0000E+00  0.1600E+02
    -17.520  0.0000E+00  0.1600E+02
    -17.413  0.0000E+00  0.1600E+02
    -17.306  0.0000E+00  0.1600E+02
    -17.199  0.9757E+02  0.5845E+02
    -17.092  0.0000E+00  0.9600E+02
    -16.985  0.0000E+00  0.9600E+02
    -16.878  0.0000E+00  0.9600E+02
    -16.771  0.0000E+00  0.9600E+02
    -16.664  0.0000E+00  0.9600E+02
    -16.557  0.0000E+00  0.9600E+02
    -16.450  0.0000E+00  0.9600E+02
    -16.343  0.0000E+00  0.9600E+02
    -16.236  0.0000E+00  0.9600E+02
    -16.129  0.0000E+00  0.9600E+02
    -16.022  0.0000E+00  0.9600E+02
    -15.915  0.0000E+00  0.9600E+02
    -15.807  0.0000E+00  0.9600E+02
    -15.700  0.0000E+00  0.9600E+02
    -15.593  0.0000E+00  0.9600E+02
    -15.486  0.0000E+00  0.9600E+02
    -15.379  0.0000E+00  0.9600E+02
    -15.272  0.0000E+00  0.9600E+02
    -15.165  0.0000E+00  0.9600E+02
    -15.058  0.0000E+00  0.9600E+02
    -14.951  0.0000E+00  0.9600E+02
    -14.844  0.0000E+00  0.9600E+02
    -14.737  0.0000E+00  0.9600E+02
    -14.630  0.0000E+00  0.9600E+02
    -14.523  0.0000E+00  0.9600E+02
    -14.416  0.0000E+00  0.9600E+02
    -14.309  0.0000E+00  0.9600E+02
    -14.202  0.0000E+00  0.9600E+02
    -14.095  0.0000E+00  0.9600E+02
    -13.988  0.0000E+00  0.9600E+02
    -13.881  0.0000E+00  0.9600E+02
    -13.774  0.0000E+00  0.9600E+02
    -13.666  0.0000E+00  0.9600E+02
    -13.559  0.0000E+00  0.9600E+02
    -13.452  0.0000E+00  0.9600E+02
    -13.345  0.0000E+00  0.9600E+02
    -13.238  0.0000E+00  0.1040E+03
    -13.131  0.0000E+00  0.1120E+03
    -13.024  0.0000E+00  0.1120E+03
    -12.917  0.0000E+00  0.1120E+03
    -12.810  0.0000E+00  0.1120E+03
    -12.703  0.0000E+00  0.1120E+03
    -12.596  0.0000E+00  0.1120E+03
    -12.489  0.0000E+00  0.1120E+03
    -12.382  0.0000E+00  0.1120E+03
    -12.275  0.5744E+01  0.1131E+03
    -12.168  0.1234E+02  0.1165E+03
    -12.061  0.4208E+01  0.1221E+03
    -11.954  0.6472E+01  0.1280E+03
    -11.847  0.1079E+02  0.1307E+03
    -11.740  0.8327E+01  0.1387E+03
    -11.633  0.5436E+01  0.1421E+03
    -11.525  0.3150E-14  0.1442E+03
    -11.418  0.4150E+01  0.1550E+03
    -11.311  0.0000E+00  0.1600E+03
    -11.204  0.0000E+00  0.1600E+03
    -11.097  0.0000E+00  0.1600E+03
    -10.990  0.0000E+00  0.1600E+03
    -10.883  0.0000E+00  0.1600E+03
    -10.776  0.0000E+00  0.1600E+03
    -10.669  0.0000E+00  0.1600E+03
    -10.562  0.0000E+00  0.1600E+03
    -10.455  0.0000E+00  0.1600E+03
    -10.348  0.0000E+00  0.1600E+03
    -10.241  0.0000E+00  0.1600E+03
    -10.134  0.0000E+00  0.1600E+03
    -10.027  0.0000E+00  0.1600E+03
     -9.920  0.0000E+00  0.1600E+03
     -9.813  0.0000E+00  0.1600E+03
     -9.706  0.0000E+00  0.1600E+03
     -9.599  0.0000E+00  0.1600E+03
     -9.492  0.0000E+00  0.1600E+03
     -9.384  0.0000E+00  0.1600E+03
     -9.277  0.0000E+00  0.1600E+03
     -9.170  0.0000E+00  0.1600E+03
     -9.063  0.0000E+00  0.1680E+03
     -8.956  0.2311E+02  0.1878E+03
     -8.849  0.0000E+00  0.1920E+03
     -8.742  0.0000E+00  0.1920E+03
     -8.635  0.0000E+00  0.1920E+03
     -8.528  0.0000E+00  0.1920E+03
     -8.421  0.0000E+00  0.1920E+03
     -8.314  0.0000E+00  0.1920E+03
     -8.207  0.0000E+00  0.1920E+03
     -8.100  0.0000E+00  0.1920E+03
     -7.993  0.0000E+00  0.1921E+03
     -7.886  0.0000E+00  0.1921E+03
     -7.779  0.0000E+00  0.1925E+03
     -7.672  0.0000E+00  0.1934E+03
     -7.565  0.1372E+01  0.1943E+03
     -7.458  0.4041E-13  0.1944E+03
     -7.351  0.4108E-06  0.1964E+03
     -7.243  0.0000E+00  0.1988E+03
     -7.136  0.0000E+00  0.2000E+03
     -7.029  0.6920E+00  0.2021E+03
     -6.922  0.2766E+01  0.2119E+03
     -6.815  0.6641E-12  0.2202E+03
     -6.708  0.0000E+00  0.2216E+03
     -6.601  0.0000E+00  0.2226E+03
     -6.494  0.0000E+00  0.2235E+03
     -6.387  0.0000E+00  0.2235E+03
     -6.280  0.0000E+00  0.2239E+03
     -6.173  0.0000E+00  0.2239E+03
     -6.066  0.0000E+00  0.2240E+03
     -5.959  0.0000E+00  0.2240E+03
     -5.852  0.0000E+00  0.2240E+03
     -5.745  0.0000E+00  0.2240E+03
     -5.638  0.0000E+00  0.2240E+03
     -5.531  0.0000E+00  0.2240E+03
     -5.424  0.0000E+00  0.2240E+03
     -5.317  0.0000E+00  0.2240E+03
     -5.209  0.0000E+00  0.2240E+03
     -5.102  0.0000E+00  0.2240E+03
     -4.995  0.0000E+00  0.2240E+03
     -4.888  0.0000E+00  0.2240E+03
     -4.781  0.1614E+02  0.2271E+03
     -4.674  0.7258E+01  0.2522E+03
     -4.567  0.0000E+00  0.2560E+03
     -4.460  0.0000E+00  0.2560E+03
     -4.353  0.0000E+00  0.2560E+03
     -4.246  0.0000E+00  0.2560E+03
     -4.139  0.0000E+00  0.2560E+03
     -4.032  0.0000E+00  0.2560E+03
     -3.925  0.0000E+00  0.2560E+03
     -3.818  0.0000E+00  0.2560E+03
     -3.711  0.0000E+00  0.2560E+03
     -3.604  0.0000E+00  0.2560E+03
     -3.497  0.0000E+00  0.2560E+03
     -3.390  0.0000E+00  0.2560E+03
     -3.283  0.0000E+00  0.2560E+03
     -3.176  0.0000E+00  0.2560E+03
     -3.068  0.0000E+00  0.2560E+03
     -2.961  0.0000E+00  0.2560E+03
     -2.854  0.0000E+00  0.2560E+03
     -2.747  0.2265E+01  0.2570E+03
     -2.640  0.7256E+00  0.2592E+03
     -2.533  0.1486E+00  0.2616E+03
     -2.426  0.3660E+01  0.2642E+03
     -2.319  0.5305E+00  0.2666E+03
     -2.212  0.5497E+01  0.2711E+03
     -2.105  0.2768E+01  0.2741E+03
     -1.998  0.0000E+00  0.2772E+03
     -1.891  0.6552E+00  0.2795E+03
     -1.784  0.0000E+00  0.2800E+03
     -1.677  0.1019E+01  0.2803E+03
     -1.570  0.2747E+01  0.2838E+03
     -1.463  0.5192E+01  0.2885E+03
     -1.356  0.4152E+01  0.2955E+03
     -1.249  0.3866E+01  0.3017E+03
     -1.142  0.1697E+01  0.3056E+03
     -1.035  0.3087E+01  0.3097E+03
     -0.927  0.4152E+01  0.3150E+03
     -0.820  0.1706E+02  0.3229E+03
     -0.713  0.8303E+01  0.3297E+03
     -0.606  0.7570E+01  0.3363E+03
     -0.499  0.1500E+02  0.3433E+03
     -0.392  0.8263E+01  0.3523E+03
     -0.285  0.6915E+01  0.3628E+03
     -0.178  0.8985E+01  0.3701E+03
     -0.071  0.4696E+01  0.3784E+03
      0.036  0.5327E+01  0.3848E+03
      0.143  0.9713E+00  0.3904E+03
      0.250  0.0000E+00  0.3934E+03
      0.357  0.2768E+01  0.3956E+03
      0.464  0.2825E+01  0.3972E+03
      0.571  0.1315E+00  0.3982E+03
      0.678  0.0000E+00  0.3993E+03
      0.785  0.7682E-16  0.3995E+03
      0.892  0.0000E+00  0.3999E+03
      0.999  0.0000E+00  0.3999E+03
      1.106  0.0000E+00  0.4000E+03
      1.214  0.0000E+00  0.4000E+03
      1.321  0.0000E+00  0.4000E+03
      1.428  0.0000E+00  0.4000E+03
      1.535  0.0000E+00  0.4000E+03
      1.642  0.0000E+00  0.4000E+03
      1.749  0.0000E+00  0.4000E+03
      1.856  0.0000E+00  0.4000E+03
      1.963  0.0000E+00  0.4000E+03
      2.070  0.0000E+00  0.4000E+03
      2.177  0.0000E+00  0.4000E+03
      2.284  0.0000E+00  0.4000E+03
      2.391  0.0000E+00  0.4000E+03
      2.498  0.0000E+00  0.4000E+03
      2.605  0.0000E+00  0.4000E+03
      2.712  0.0000E+00  0.4000E+03
      2.819  0.0000E+00  0.4000E+03
      2.926  0.0000E+00  0.4000E+03
      3.033  0.0000E+00  0.4000E+03
      3.140  0.0000E+00  0.4000E+03
      3.247  0.0000E+00  0.4000E+03
      3.355  0.0000E+00  0.4007E+03
      3.462  0.1384E+01  0.4010E+03
      3.569  0.0000E+00  0.4029E+03
      3.676  0.1384E+01  0.4036E+03
      3.783  0.2768E+01  0.4059E+03
      3.890  0.1384E+01  0.4067E+03
      3.997  0.0000E+00  0.4079E+03
      4.104  0.7179E-12  0.4084E+03
      4.211  0.0000E+00  0.4093E+03
      4.318  0.0000E+00  0.4107E+03
      4.425  0.4152E+01  0.4130E+03
      4.532  0.0000E+00  0.4148E+03
      4.639  0.3064E+01  0.4172E+03
      4.746  0.5522E+01  0.4207E+03
      4.853  0.0000E+00  0.4227E+03
      4.960  0.0000E+00  0.4239E+03
      5.067  0.0000E+00  0.4240E+03
      5.174  0.0000E+00  0.4240E+03
      5.281  0.0000E+00  0.4240E+03
      5.388  0.0000E+00  0.4240E+03
      5.496  0.0000E+00  0.4240E+03
      5.603  0.0000E+00  0.4242E+03
      5.710  0.0000E+00  0.4254E+03
      5.817  0.1384E+01  0.4291E+03
      5.924  0.1360E+01  0.4329E+03
      6.031  0.2002E+01  0.4361E+03
      6.138  0.1373E+01  0.4388E+03
      6.245  0.2768E+01  0.4410E+03
      6.352  0.4084E+00  0.4436E+03
      6.459  0.1372E+01  0.4464E+03
      6.566  0.2768E+01  0.4494E+03
      6.673  0.4372E-12  0.4536E+03
      6.780  0.4152E+01  0.4579E+03
      6.887  0.1384E+01  0.4621E+03
      6.994  0.1389E+01  0.4656E+03
      7.101  0.2767E+01  0.4696E+03
      7.208  0.3494E+01  0.4747E+03
      7.315  0.2562E+01  0.4788E+03
      7.422  0.4403E+01  0.4827E+03
      7.529  0.5495E+01  0.4861E+03
      7.637  0.6018E+01  0.4900E+03
      7.744  0.4318E+01  0.4939E+03
      7.851  0.1390E+01  0.4967E+03
      7.958  0.2740E+01  0.5004E+03
      8.065  0.1384E+01  0.5040E+03
      8.172  0.1384E+01  0.5067E+03
      8.279  0.5064E-08  0.5092E+03
      8.386  0.6920E+00  0.5113E+03
      8.493  0.0000E+00  0.5119E+03
      8.600  0.0000E+00  0.5120E+03
      8.707  0.0000E+00  0.5120E+03
      8.814  0.0000E+00  0.5120E+03
      8.921  0.0000E+00  0.5120E+03
      9.028  0.0000E+00  0.5120E+03
      9.135  0.0000E+00  0.5120E+03
      9.242  0.0000E+00  0.5120E+03
      9.349  0.0000E+00  0.5120E+03
      9.456  0.0000E+00  0.5120E+03
      9.563  0.0000E+00  0.5120E+03
      9.670  0.0000E+00  0.5120E+03
      9.778  0.0000E+00  0.5120E+03
      9.885  0.0000E+00  0.5120E+03
      9.992  0.0000E+00  0.5120E+03
