 running on 1344 total cores
 distrk:  each k-point on  192 cores,    7 groups
 distr:  one band on   12 cores,   16 groups
 using from now: INCAR     
 vasp.5.4.1 24Jun15 (build Nov 25 2015 16:01:35) complex                        
  
 POSCAR found type information on POSCAR  C  N  H  Pb I 
 POSCAR found :  5 types and      96 ions
 scaLAPACK will be used

 ----------------------------------------------------------------------------- 
|                                                                             |
|           W    W    AA    RRRRR   N    N  II  N    N   GGGG   !!!           |
|           W    W   A  A   R    R  NN   N  II  NN   N  G    G  !!!           |
|           W    W  A    A  R    R  N N  N  II  N N  N  G       !!!           |
|           W WW W  AAAAAA  RRRRR   N  N N  II  N  N N  G  GGG   !            |
|           WW  WW  A    A  R   R   N   NN  II  N   NN  G    G                |
|           W    W  A    A  R    R  N    N  II  N    N   GGGG   !!!           |
|                                                                             |
|      For optimal performance we recommend to set                            |
|        NCORE= 4 - approx SQRT( number of cores)                             |
|      NCORE specifies how many cores store one orbital (NPAR=cpu/NCORE).     |
|      This setting can  greatly improve the performance of VASP for DFT.     |
|      The default, NPAR=number of cores might be grossly inefficient         |
|      on modern multi-core architectures or massively parallel machines.     |
|      Do your own testing !!!!                                               |
|      Unfortunately you need to use the default for GW and RPA calculations. |
|      (for HF NCORE is supported but not extensively tested yet)             |
|                                                                             |
 ----------------------------------------------------------------------------- 


 ----------------------------------------------------------------------------- 
|                                                                             |
|           W    W    AA    RRRRR   N    N  II  N    N   GGGG   !!!           |
|           W    W   A  A   R    R  NN   N  II  NN   N  G    G  !!!           |
|           W    W  A    A  R    R  N N  N  II  N N  N  G       !!!           |
|           W WW W  AAAAAA  RRRRR   N  N N  II  N  N N  G  GGG   !            |
|           WW  WW  A    A  R   R   N   NN  II  N   NN  G    G                |
|           W    W  A    A  R    R  N    N  II  N    N   GGGG   !!!           |
|                                                                             |
|      You have enabled k-point parallelism (KPAR>1).                         |
|      This developmental code was originally  written by Paul Kent at ORNL,  |
|      and carefully double checked in Vienna.                                |
|      GW as well as linear response parallelism added by Martijn Marsman     |
|      and Georg Kresse.                                                      |
|      Carefully verify results versus KPAR=1.                                |
|      Report problems to Paul Kent and Vienna.                               |
|                                                                             |
 ----------------------------------------------------------------------------- 


 ----------------------------------------------------------------------------- 
|                                                                             |
|  ADVICE TO THIS USER RUNNING 'VASP/VAMP'   (HEAR YOUR MASTER'S VOICE ...):  |
|                                                                             |
|      You have a (more or less) 'large supercell' and for larger cells       |
|      it might be more efficient to use real space projection opertators     |
|      So try LREAL= Auto  in the INCAR   file.                               |
|      Mind: At the moment your POTCAR file does not contain real space       |
|       projectors, and has to be modified,  BUT if you                       |
|      want to do an extremely  accurate calculation you might also keep the  |
|      reciprocal projection scheme          (i.e. LREAL=.FALSE.)             |
|                                                                             |
 ----------------------------------------------------------------------------- 

 LDA part: xc-table for Pade appr. of Perdew
 POSCAR, INCAR and KPOINTS ok, starting setup
 WARNING: small aliasing (wrap around) errors must be expected
 FFT: planning ...
 WAVECAR not read
  WARNING: DENMP: can't reach specified precision
  Number of Electrons is NELECT =   399.999999999859     
 entering main loop
       N       E                     dE             d eps       ncg     rms          ort
DAV:   1     0.350726486606E+05    0.35073E+05   -0.11345E+06  3584   0.486E+03
DAV:   2     0.872773489220E+04   -0.26345E+05   -0.25634E+05  3584   0.167E+03
DAV:   3     0.181008825599E+04   -0.69176E+04   -0.68105E+04  3584   0.502E+02
DAV:   4     0.440368525459E+03   -0.13697E+04   -0.13131E+04  3584   0.207E+02
DAV:   5     0.274633689952E+03   -0.16573E+03   -0.16287E+03  3584   0.770E+01
 gam= 0.000 g(H,U,f)=  0.110E+03 0.535E+01 0.000E+00 ort(H,U,f) = 0.000E+00 0.000E+00 0.000E+00
SDA:   6    -0.447391184746E+03   -0.72202E+03   -0.16287E+03  3584   0.115E+03 0.000E+00
 gam= 0.000 trial= 0.400  step= 0.340 mean= 0.400
 gam= 0.358 g(H,U,f)=  0.395E+02 0.170E+01 0.788E-26 ort(H,U,f) =-0.198E+01 0.267E+01 0.119E-25
CGA:   7    -0.466869543373E+03   -0.19478E+02   -0.19546E+02  3584   0.412E+02 0.690E+00
 gam= 0.358 trial= 0.397  step= 0.387 mean= 0.397
 gam= 0.210 g(H,U,f)=  0.823E+01 0.407E+00 0.148-115 ort(H,U,f) =-0.985E+00 0.994E+00 0.315-115
CGA:   8    -0.474895536801E+03   -0.80260E+01   -0.80265E+01  3584   0.864E+01 0.872E-02
 gam= 0.210 trial= 0.397  step= 0.674 mean= 0.397
 gam= 0.335 g(H,U,f)=  0.274E+01 0.151E+00 0.000E+00 ort(H,U,f) =-0.350E+00 0.337E+00 0.000E+00
CGA:   9    -0.477805850875E+03   -0.29103E+01   -0.29104E+01  3584   0.289E+01-0.130E-01
 gam= 0.335 trial= 0.410  step= 0.631 mean= 0.410
 gam= 0.378 g(H,U,f)=  0.105E+01 0.456E-01 0.000E+00 ort(H,U,f) =-0.142E+00 0.132E+00 0.000E+00
CGA:  10    -0.478716296879E+03   -0.91045E+00   -0.91149E+00  3584   0.109E+01-0.986E-02
 gam= 0.378 trial= 0.421  step= 0.431 mean= 0.421
 gam= 0.387 g(H,U,f)=  0.404E+00 0.195E-01 0.000E+00 ort(H,U,f) =-0.567E-01 0.548E-01 0.000E+00
CGA:  11    -0.478951206818E+03   -0.23491E+00   -0.23492E+00  3584   0.423E+00-0.186E-02
 gam= 0.387 trial= 0.422  step= 0.565 mean= 0.422
 gam= 0.251 g(H,U,f)=  0.102E+00 0.430E-02 0.000E+00 ort(H,U,f) =-0.185E-01 0.167E-01 0.000E+00
CGA:  12    -0.479070383835E+03   -0.11918E+00   -0.11931E+00  3584   0.106E+00-0.181E-02
 gam= 0.251 trial= 0.429  step= 0.695 mean= 0.429
 gam= 0.308 g(H,U,f)=  0.317E-01 0.100E-02 0.000E+00 ort(H,U,f) =-0.427E-02 0.376E-02 0.000E+00
CGA:  13    -0.479107035443E+03   -0.36652E-01   -0.36724E-01  3584   0.327E-01-0.506E-03
 gam= 0.308 trial= 0.442  step= 0.635 mean= 0.442
 gam= 0.436 g(H,U,f)=  0.139E-01 0.309E-03 0.000E+00 ort(H,U,f) =-0.104E-02 0.103E-02 0.000E+00
CGA:  14    -0.479117370384E+03   -0.10335E-01   -0.10337E-01  3584   0.143E-01-0.956E-05
 gam= 0.436 trial= 0.452  step= 0.439 mean= 0.452
 gam= 0.431 g(H,U,f)=  0.605E-02 0.915E-04 0.874-153 ort(H,U,f) =-0.528E-03 0.270E-03-0.257-151
CGA:  15    -0.479120502353E+03   -0.31320E-02   -0.31303E-02  3584   0.615E-02-0.258E-03
 gam= 0.431 trial= 0.451  step= 0.546 mean= 0.451
 gam= 0.314 g(H,U,f)=  0.190E-02 0.310E-04 0.000E+00 ort(H,U,f) =-0.324E-04 0.629E-04 0.000E+00
CGA:  16    -0.479122151785E+03   -0.16494E-02   -0.16481E-02  3584   0.193E-02 0.304E-04
 gam= 0.314 trial= 0.456  step= 0.739 mean= 0.456
 gam= 0.394 g(H,U,f)=  0.748E-03 0.140E-04 0.000E+00 ort(H,U,f) =-0.639E-04 0.521E-05 0.000E+00
CGA:  17    -0.479122861259E+03   -0.70947E-03   -0.71784E-03  3584   0.762E-03-0.587E-04
 gam= 0.394 trial= 0.470  step= 0.618 mean= 0.470
 gam= 0.398 g(H,U,f)=  0.296E-03 0.716E-05 0.000E+00 ort(H,U,f) = 0.155E-04 0.521E-05 0.000E+00
CGA:  18    -0.479123091031E+03   -0.22977E-03   -0.22826E-03  3584   0.304E-03 0.207E-04
 gam= 0.398 trial= 0.478  step= 0.600 mean= 0.478
 gam= 0.507 g(H,U,f)=  0.149E-03 0.465E-05 0.449-173 ort(H,U,f) =-0.215E-04 0.549E-05 0.101-172
CGA:  19    -0.479123183517E+03   -0.92486E-04   -0.93464E-04  3584   0.154E-03-0.160E-04
 gam= 0.507 trial= 0.484  step= 0.400 mean= 0.484
 gam= 0.324 g(H,U,f)=  0.478E-04 0.208E-05 0.940E-28 ort(H,U,f) = 0.131E-04 0.428E-05 0.347E-27
CGA:  20    -0.479123211964E+03   -0.28447E-04   -0.29174E-04  3584   0.499E-04 0.174E-04
 gam= 0.324 trial= 0.480  step= 0.712 mean= 0.480
 gam= 0.427 g(H,U,f)=  0.206E-04 0.673E-06 0.000E+00 ort(H,U,f) =-0.380E-05 0.168E-05 0.000E+00
CGA:  21    -0.479123231497E+03   -0.19533E-04   -0.19780E-04  3584   0.213E-04-0.212E-05
 gam= 0.427 trial= 0.491  step= 0.875 mean= 0.491
 gam= 0.863 g(H,U,f)=  0.183E-04 0.113E-06 0.000E+00 ort(H,U,f) =-0.631E-05 0.346E-06 0.000E+00
CGA:  22    -0.479123239275E+03   -0.77775E-05   -0.89213E-05  3584   0.184E-04-0.596E-05
 gam= 0.863 trial= 0.510  step= 0.267 mean= 0.510
 gam= 0.401 g(H,U,f)=  0.732E-05 0.480E-07 0.000E+00 ort(H,U,f) = 0.318E-05 0.756E-08 0.000E+00
CGA:  23    -0.479123240654E+03   -0.13796E-05   -0.17669E-05  3584   0.737E-05 0.319E-05
 gam= 0.401 trial= 0.498  step= 0.249 mean= 0.498
 gam= 0.491 g(H,U,f)=  0.356E-05 0.596E-07 0.000E+00 ort(H,U,f) = 0.204E-05-0.171E-07 0.000E+00
CGA:  24    -0.479123241481E+03   -0.82630E-06   -0.10775E-05  3584   0.362E-05 0.202E-05
 gam= 0.491 trial= 0.486  step= 0.479 mean= 0.486
 gam= 0.686 g(H,U,f)=  0.244E-05 0.414E-07 0.000E+00 ort(H,U,f) =-0.128E-05 0.183E-07 0.000E+00
CGA:  25    -0.479123242588E+03   -0.11077E-05   -0.11035E-05  3584   0.248E-05-0.126E-05
 gam= 0.686 trial= 0.485  step= 1.408 mean= 0.485
 gam= 0.000 g(H,U,f)=  0.172E-04 0.542E-07 0.000E+00 ort(H,U,f) =-0.627E-05-0.441E-07 0.000E+00
CGA:  26    -0.479123240811E+03    0.17771E-05   -0.11359E-05  3584   0.172E-04-0.631E-05
 gam= 0.000 trial= 0.532  step= 0.255 mean= 0.532
 gam= 0.172 g(H,U,f)=  0.295E-05 0.227E-07 0.000E+00 ort(H,U,f) = 0.381E-05 0.191E-07 0.000E+00
CGA:  27    -0.479123242478E+03   -0.16665E-05   -0.21966E-05  3584   0.297E-05 0.383E-05
 gam= 0.172 trial= 0.518  step= 0.493 mean= 0.518
 gam= 0.412 g(H,U,f)=  0.121E-05 0.174E-07 0.000E+00 ort(H,U,f) = 0.526E-06 0.203E-07 0.000E+00
CGA:  28    -0.479123243366E+03   -0.88829E-06   -0.89495E-06  3584   0.122E-05 0.546E-06
 gam= 0.412 trial= 0.516  step= 2.052 mean= 0.516
 gam= 0.000 g(H,U,f)=  0.242E-04 0.684E-07 0.000E+00 ort(H,U,f) =-0.570E-05-0.218E-07 0.000E+00
CGA:  29    -0.479123240461E+03    0.29052E-05   -0.14860E-05  3584   0.243E-04-0.572E-05
 gam= 0.000 trial= 0.593  step= 0.251 mean= 0.593
 gam= 0.121 g(H,U,f)=  0.294E-05 0.151E-08 0.147-302 ort(H,U,f) = 0.443E-05 0.547E-08 0.577-302
CGA:  30    -0.479123242749E+03   -0.22882E-05   -0.30477E-05  3584   0.294E-05 0.443E-05
 gam= 0.121 trial= 0.576  step= 0.356 mean= 0.576
 gam= 0.437 g(H,U,f)=  0.128E-05 0.208E-08 0.277-271 ort(H,U,f) = 0.108E-05-0.534E-09 0.544-270
CGA:  31    -0.479123243247E+03   -0.49838E-06   -0.61755E-06  3584   0.128E-05 0.108E-05
 gam= 0.437 trial= 0.565  step= 0.779 mean= 0.565
 gam= 0.000 g(H,U,f)=  0.129E-05 0.300E-08 0.293-185 ort(H,U,f) =-0.146E-05-0.152E-09 0.579-185
CGA:  32    -0.479123243775E+03   -0.52751E-06   -0.68416E-06  3584   0.129E-05-0.146E-05
 gam= 0.000 trial= 0.576  step= 0.207 mean= 0.576
 gam= 0.263 g(H,U,f)=  0.339E-06 0.464E-09 0.182-173 ort(H,U,f) = 0.565E-06 0.100E-08 0.874-173
CGA:  33    -0.479123243803E+03   -0.28565E-07   -0.13324E-06  3584   0.340E-06 0.566E-06
 gam= 0.263 trial= 0.557  step= 0.219 mean= 0.557
 gam= 0.000 g(H,U,f)=  0.140E-06 0.224E-09 0.419-158 ort(H,U,f) = 0.215E-06 0.171E-09-0.462-157
CGA:  34    -0.479123243820E+03   -0.16986E-07   -0.53504E-07  3584   0.140E-06 0.215E-06
 gam= 0.000 trial= 0.540  step=-0.218 mean= 0.540
 BOPT < 0, no correction made
 gam= 0.571 g(H,U,f)=  0.800E-07 0.271E-09 0.832-126 ort(H,U,f) =-0.189E-08 0.604E-10-0.522-127
CGA:  35    -0.479123243990E+03   -0.16998E-06    0.15303E-07  3584   0.802E-07-0.183E-08
 gam= 0.571 trial= 0.540  step= 0.103 mean= 0.540
 gam= 0.000 g(H,U,f)=  0.429E-07 0.179E-09 0.107-117 ort(H,U,f) = 0.560E-07 0.257E-09 0.119-117
CGA:  36    -0.479123243982E+03    0.82073E-08   -0.40740E-08  3584   0.431E-07 0.562E-07
 gam= 0.000 trial= 0.519  step= 0.040 mean= 0.519
   1 F= -.47912324E+03 E0= -.47912324E+03  d E =-.843447-112
Application 22296065 resources: utime ~25531203s, stime ~33249s, Rss ~383812, inblocks ~19037504, outblocks ~10971129
