       N       E                     dE             d eps       ncg     rms          ort
DAV:   1     0.350726486606E+05    0.35073E+05   -0.11345E+06  3584   0.486E+03
DAV:   2     0.872773489220E+04   -0.26345E+05   -0.25634E+05  3584   0.167E+03
DAV:   3     0.181008825599E+04   -0.69176E+04   -0.68105E+04  3584   0.502E+02
DAV:   4     0.440368525459E+03   -0.13697E+04   -0.13131E+04  3584   0.207E+02
DAV:   5     0.274633689952E+03   -0.16573E+03   -0.16287E+03  3584   0.770E+01
SDA:   6    -0.447391184746E+03   -0.72202E+03   -0.16287E+03  3584   0.115E+03 0.000E+00
CGA:   7    -0.466869543373E+03   -0.19478E+02   -0.19546E+02  3584   0.412E+02 0.690E+00
CGA:   8    -0.474895536801E+03   -0.80260E+01   -0.80265E+01  3584   0.864E+01 0.872E-02
CGA:   9    -0.477805850875E+03   -0.29103E+01   -0.29104E+01  3584   0.289E+01-0.130E-01
CGA:  10    -0.478716296879E+03   -0.91045E+00   -0.91149E+00  3584   0.109E+01-0.986E-02
CGA:  11    -0.478951206818E+03   -0.23491E+00   -0.23492E+00  3584   0.423E+00-0.186E-02
CGA:  12    -0.479070383835E+03   -0.11918E+00   -0.11931E+00  3584   0.106E+00-0.181E-02
CGA:  13    -0.479107035443E+03   -0.36652E-01   -0.36724E-01  3584   0.327E-01-0.506E-03
CGA:  14    -0.479117370384E+03   -0.10335E-01   -0.10337E-01  3584   0.143E-01-0.956E-05
CGA:  15    -0.479120502353E+03   -0.31320E-02   -0.31303E-02  3584   0.615E-02-0.258E-03
CGA:  16    -0.479122151785E+03   -0.16494E-02   -0.16481E-02  3584   0.193E-02 0.304E-04
CGA:  17    -0.479122861259E+03   -0.70947E-03   -0.71784E-03  3584   0.762E-03-0.587E-04
CGA:  18    -0.479123091031E+03   -0.22977E-03   -0.22826E-03  3584   0.304E-03 0.207E-04
CGA:  19    -0.479123183517E+03   -0.92486E-04   -0.93464E-04  3584   0.154E-03-0.160E-04
CGA:  20    -0.479123211964E+03   -0.28447E-04   -0.29174E-04  3584   0.499E-04 0.174E-04
CGA:  21    -0.479123231497E+03   -0.19533E-04   -0.19780E-04  3584   0.213E-04-0.212E-05
CGA:  22    -0.479123239275E+03   -0.77775E-05   -0.89213E-05  3584   0.184E-04-0.596E-05
CGA:  23    -0.479123240654E+03   -0.13796E-05   -0.17669E-05  3584   0.737E-05 0.319E-05
CGA:  24    -0.479123241481E+03   -0.82630E-06   -0.10775E-05  3584   0.362E-05 0.202E-05
CGA:  25    -0.479123242588E+03   -0.11077E-05   -0.11035E-05  3584   0.248E-05-0.126E-05
CGA:  26    -0.479123240811E+03    0.17771E-05   -0.11359E-05  3584   0.172E-04-0.631E-05
CGA:  27    -0.479123242478E+03   -0.16665E-05   -0.21966E-05  3584   0.297E-05 0.383E-05
CGA:  28    -0.479123243366E+03   -0.88829E-06   -0.89495E-06  3584   0.122E-05 0.546E-06
CGA:  29    -0.479123240461E+03    0.29052E-05   -0.14860E-05  3584   0.243E-04-0.572E-05
CGA:  30    -0.479123242749E+03   -0.22882E-05   -0.30477E-05  3584   0.294E-05 0.443E-05
CGA:  31    -0.479123243247E+03   -0.49838E-06   -0.61755E-06  3584   0.128E-05 0.108E-05
CGA:  32    -0.479123243775E+03   -0.52751E-06   -0.68416E-06  3584   0.129E-05-0.146E-05
CGA:  33    -0.479123243803E+03   -0.28565E-07   -0.13324E-06  3584   0.340E-06 0.566E-06
CGA:  34    -0.479123243820E+03   -0.16986E-07   -0.53504E-07  3584   0.140E-06 0.215E-06
CGA:  35    -0.479123243990E+03   -0.16998E-06    0.15303E-07  3584   0.802E-07-0.183E-08
CGA:  36    -0.479123243982E+03    0.82073E-08   -0.40740E-08  3584   0.431E-07 0.562E-07
   1 F= -.47912324E+03 E0= -.47912324E+03  d E =-.843447-112
