 vasp.5.4.1 24Jun15 (build Nov 25 2015 16:01:35) complex                        
  
 executed on         CrayXC-Intel date 2016.06.26  15:06:14
 running on 1344 total cores
 distrk:  each k-point on  192 cores,    7 groups
 distr:  one band on NCORES_PER_BAND=  12 cores,   16 groups


--------------------------------------------------------------------------------------------------------


 INCAR:
 POTCAR:    PAW_PBE C 08Apr2002                   
 POTCAR:    PAW_PBE N 08Apr2002                   
 POTCAR:    PAW_PBE H 15Jun2001                   
 POTCAR:    PAW_PBE Pb_d 06Sep2000                
 POTCAR:    PAW_PBE I 08Apr2002                   

 ----------------------------------------------------------------------------- 
|                                                                             |
|           W    W    AA    RRRRR   N    N  II  N    N   GGGG   !!!           |
|           W    W   A  A   R    R  NN   N  II  NN   N  G    G  !!!           |
|           W    W  A    A  R    R  N N  N  II  N N  N  G       !!!           |
|           W WW W  AAAAAA  RRRRR   N  N N  II  N  N N  G  GGG   !            |
|           WW  WW  A    A  R   R   N   NN  II  N   NN  G    G                |
|           W    W  A    A  R    R  N    N  II  N    N   GGGG   !!!           |
|                                                                             |
|      For optimal performance we recommend to set                            |
|        NCORE= 4 - approx SQRT( number of cores)                             |
|      NCORE specifies how many cores store one orbital (NPAR=cpu/NCORE).     |
|      This setting can  greatly improve the performance of VASP for DFT.     |
|      The default, NPAR=number of cores might be grossly inefficient         |
|      on modern multi-core architectures or massively parallel machines.     |
|      Do your own testing !!!!                                               |
|      Unfortunately you need to use the default for GW and RPA calculations. |
|      (for HF NCORE is supported but not extensively tested yet)             |
|                                                                             |
 ----------------------------------------------------------------------------- 


 ----------------------------------------------------------------------------- 
|                                                                             |
|           W    W    AA    RRRRR   N    N  II  N    N   GGGG   !!!           |
|           W    W   A  A   R    R  NN   N  II  NN   N  G    G  !!!           |
|           W    W  A    A  R    R  N N  N  II  N N  N  G       !!!           |
|           W WW W  AAAAAA  RRRRR   N  N N  II  N  N N  G  GGG   !            |
|           WW  WW  A    A  R   R   N   NN  II  N   NN  G    G                |
|           W    W  A    A  R    R  N    N  II  N    N   GGGG   !!!           |
|                                                                             |
|      You have enabled k-point parallelism (KPAR>1).                         |
|      This developmental code was originally  written by Paul Kent at ORNL,  |
|      and carefully double checked in Vienna.                                |
|      GW as well as linear response parallelism added by Martijn Marsman     |
|      and Georg Kresse.                                                      |
|      Carefully verify results versus KPAR=1.                                |
|      Report problems to Paul Kent and Vienna.                               |
|                                                                             |
 ----------------------------------------------------------------------------- 

 POTCAR:    PAW_PBE C 08Apr2002                   
   VRHFIN =C: s2p2                                                              
   LEXCH  = PE                                                                  
   EATOM  =   147.1560 eV,   10.8157 Ry                                         
                                                                                
   TITEL  = PAW_PBE C 08Apr2002                                                 
   LULTRA =        F    use ultrasoft PP ?                                      
   IUNSCR =        1    unscreen: 0-lin 1-nonlin 2-no                           
   RPACOR =    1.200    partial core radius                                     
   POMASS =   12.011; ZVAL   =    4.000    mass and valenz                      
   RCORE  =    1.500    outmost cutoff radius                                   
   RWIGS  =    1.630; RWIGS  =    0.863    wigner-seitz radius (au A)           
   ENMAX  =  400.000; ENMIN  =  300.000 eV                                      
   ICORE  =        2    local potential                                         
   LCOR   =        T    correct aug charges                                     
   LPAW   =        T    paw PP                                                  
   EAUG   =  644.873                                                            
   DEXC   =    0.000                                                            
   RMAX   =    1.529    core radius for proj-oper                               
   RAUG   =    1.300    factor for augmentation sphere                          
   RDEP   =    1.501    radius for radial grids                                 
   RDEPT  =    1.300    core radius for aug-charge                              
                                                                                
   Atomic configuration                                                         
    4 entries                                                                   
     n  l   j            E        occ.                                          
     1  0  0.50      -273.3789   2.0000                                         
     2  0  0.50       -13.7508   2.0000                                         
     2  1  0.50        -5.2854   2.0000                                         
     3  2  1.50        -5.4423   0.0000                                         
   Description                                                                  
     l       E           TYP  RCUT    TYP  RCUT                                 
     0    -13.7508458     23  1.200                                             
     0     -8.2022199     23  1.200                                             
     1     -5.2854383     23  1.500                                             
     1     34.0145650     23  1.500                                             
     2     -5.4423304      7  1.500                                             
  local pseudopotential read in
  partial core-charges read in
  partial kinetic energy density read in
  atomic valenz-charges read in
  non local Contribution for L=           0  read in
    real space projection operators read in
  non local Contribution for L=           0  read in
    real space projection operators read in
  non local Contribution for L=           1  read in
    real space projection operators read in
  non local Contribution for L=           1  read in
    real space projection operators read in
    PAW grid and wavefunctions read in
 
   number of l-projection  operators is LMAX  =           4
   number of lm-projection operators is LMMAX =           8
 
 POTCAR:    PAW_PBE N 08Apr2002                   
   VRHFIN =N: s2p3                                                              
   LEXCH  = PE                                                                  
   EATOM  =   264.5486 eV,   19.4438 Ry                                         
                                                                                
   TITEL  = PAW_PBE N 08Apr2002                                                 
   LULTRA =        F    use ultrasoft PP ?                                      
   IUNSCR =        1    unscreen: 0-lin 1-nonlin 2-no                           
   RPACOR =    1.200    partial core radius                                     
   POMASS =   14.001; ZVAL   =    5.000    mass and valenz                      
   RCORE  =    1.500    outmost cutoff radius                                   
   RWIGS  =    1.400; RWIGS  =    0.741    wigner-seitz radius (au A)           
   ENMAX  =  400.000; ENMIN  =  300.000 eV                                      
   ICORE  =        2    local potential                                         
   LCOR   =        T    correct aug charges                                     
   LPAW   =        T    paw PP                                                  
   EAUG   =  627.112                                                            
   DEXC   =    0.000                                                            
   RMAX   =    1.529    core radius for proj-oper                               
   RAUG   =    1.300    factor for augmentation sphere                          
   RDEP   =    1.514    radius for radial grids                                 
   RDEPT  =    1.338    core radius for aug-charge                              
                                                                                
   Atomic configuration                                                         
    4 entries                                                                   
     n  l   j            E        occ.                                          
     1  0  0.50      -384.7179   2.0000                                         
     2  0  0.50       -18.5828   2.0000                                         
     2  1  0.50        -7.0898   3.0000                                         
     3  2  1.50        -6.8029   0.0000                                         
   Description                                                                  
     l       E           TYP  RCUT    TYP  RCUT                                 
     0    -18.5828119     23  1.200                                             
     0    -13.5018863     23  1.200                                             
     1     -7.0897853     23  1.500                                             
     1      9.5240782     23  1.500                                             
     2     -6.8029130      7  1.500                                             
  local pseudopotential read in
  partial core-charges read in
  partial kinetic energy density read in
  atomic valenz-charges read in
  non local Contribution for L=           0  read in
    real space projection operators read in
  non local Contribution for L=           0  read in
    real space projection operators read in
  non local Contribution for L=           1  read in
    real space projection operators read in
  non local Contribution for L=           1  read in
    real space projection operators read in
    PAW grid and wavefunctions read in
 
   number of l-projection  operators is LMAX  =           4
   number of lm-projection operators is LMMAX =           8
 
 POTCAR:    PAW_PBE H 15Jun2001                   
   VRHFIN =H: ultrasoft test                                                    
   LEXCH  = PE                                                                  
   EATOM  =    12.4884 eV,    0.9179 Ry                                         
                                                                                
   TITEL  = PAW_PBE H 15Jun2001                                                 
   LULTRA =        F    use ultrasoft PP ?                                      
   IUNSCR =        0    unscreen: 0-lin 1-nonlin 2-no                           
   RPACOR =    0.000    partial core radius                                     
   POMASS =    1.000; ZVAL   =    1.000    mass and valenz                      
   RCORE  =    1.100    outmost cutoff radius                                   
   RWIGS  =    0.700; RWIGS  =    0.370    wigner-seitz radius (au A)           
   ENMAX  =  250.000; ENMIN  =  200.000 eV                                      
   RCLOC  =    0.701    cutoff for local pot                                    
   LCOR   =        T    correct aug charges                                     
   LPAW   =        T    paw PP                                                  
   EAUG   =  400.000                                                            
   RMAX   =    1.123    core radius for proj-oper                               
   RAUG   =    1.200    factor for augmentation sphere                          
   RDEP   =    1.112    radius for radial grids                                 
   RDEPT  =    0.926    core radius for aug-charge                              
                                                                                
   Atomic configuration                                                         
    2 entries                                                                   
     n  l   j            E        occ.                                          
     1  0  0.50        -6.4927   1.0000                                         
     2  1  0.50        -3.4015   0.0000                                         
   Description                                                                  
     l       E           TYP  RCUT    TYP  RCUT                                 
     0     -6.4927494     23  1.100                                             
     0      6.8029130     23  1.100                                             
     1     -4.0817478     23  1.100                                             
  local pseudopotential read in
  atomic valenz-charges read in
  non local Contribution for L=           0  read in
    real space projection operators read in
  non local Contribution for L=           0  read in
    real space projection operators read in
  non local Contribution for L=           1  read in
    real space projection operators read in
    PAW grid and wavefunctions read in
 
   number of l-projection  operators is LMAX  =           3
   number of lm-projection operators is LMMAX =           5
 
 POTCAR:    PAW_PBE Pb_d 06Sep2000                
   VRHFIN =Pb:                                                                  
   LEXCH  = PE                                                                  
   EATOM  =  1661.6185 eV,  122.1255 Ry                                         
                                                                                
   TITEL  = PAW_PBE Pb_d 06Sep2000                                              
   LULTRA =        F    use ultrasoft PP ?                                      
   IUNSCR =        1    unscreen: 0-lin 1-nonlin 2-no                           
   RPACOR =    2.200    partial core radius                                     
   POMASS =  207.200; ZVAL   =   14.000    mass and valenz                      
   RCORE  =    2.500    outmost cutoff radius                                   
   RWIGS  =    3.260; RWIGS  =    1.725    wigner-seitz radius (au A)           
   ENMAX  =  237.835; ENMIN  =  178.376 eV                                      
   ICORE  =        3    local potential                                         
   LCOR   =        T    correct aug charges                                     
   LPAW   =        T    paw PP                                                  
   EAUG   =  391.914                                                            
   DEXC   =    0.000                                                            
   RMAX   =    2.565    core radius for proj-oper                               
   RAUG   =    1.300    factor for augmentation sphere                          
   RDEP   =    2.643    radius for radial grids                                 
   RDEPT  =    2.092    core radius for aug-charge                              
                                                                                
   Atomic configuration                                                         
   16 entries                                                                   
     n  l   j            E        occ.                                          
     1  0  0.50    -88091.8466   2.0000                                         
     2  0  0.50    -15753.4197   2.0000                                         
     2  1  1.50    -13508.1797   6.0000                                         
     3  0  0.50     -3781.7194   2.0000                                         
     3  1  1.50     -3138.2529   6.0000                                         
     3  2  2.50     -2483.2977  10.0000                                         
     4  0  0.50      -856.2895   2.0000                                         
     4  1  1.50      -645.4942   6.0000                                         
     4  2  2.50      -401.8768  10.0000                                         
     4  3  3.50      -132.9059  14.0000                                         
     5  0  0.50      -144.0950   2.0000                                         
     5  1  1.50       -85.7879   6.0000                                         
     5  2  2.50       -21.1769  10.0000                                         
     6  0  0.50       -12.0372   2.0000                                         
     6  1  1.50        -3.4971   2.0000                                         
     5  3  2.50        -2.7212   0.0000                                         
   Description                                                                  
     l       E           TYP  RCUT    TYP  RCUT                                 
     2    -21.1768523     23  2.500                                             
     2      1.3605826     23  2.500                                             
     0    -12.0371562     23  2.500                                             
     0     13.6058260     23  2.500                                             
     1     -3.4971339     23  2.500                                             
     1     13.6058260     23  2.500                                             
     3     -1.3605826      7  2.500                                             
  local pseudopotential read in
  partial core-charges read in
  partial kinetic energy density read in
  atomic valenz-charges read in
  non local Contribution for L=           2  read in
    real space projection operators read in
  non local Contribution for L=           2  read in
    real space projection operators read in
  non local Contribution for L=           0  read in
    real space projection operators read in
  non local Contribution for L=           0  read in
    real space projection operators read in
  non local Contribution for L=           1  read in
    real space projection operators read in
  non local Contribution for L=           1  read in
    real space projection operators read in
    PAW grid and wavefunctions read in
 
   number of l-projection  operators is LMAX  =           6
   number of lm-projection operators is LMMAX =          18
 
 POTCAR:    PAW_PBE I 08Apr2002                   
   VRHFIN =I : s2p5                                                             
   LEXCH  = PE                                                                  
   EATOM  =   315.8678 eV,   23.2156 Ry                                         
                                                                                
   TITEL  = PAW_PBE I 08Apr2002                                                 
   LULTRA =        F    use ultrasoft PP ?                                      
   IUNSCR =        1    unscreen: 0-lin 1-nonlin 2-no                           
   RPACOR =    2.200    partial core radius                                     
   POMASS =  126.904; ZVAL   =    7.000    mass and valenz                      
   RCORE  =    2.300    outmost cutoff radius                                   
   RWIGS  =    2.810; RWIGS  =    1.487    wigner-seitz radius (au A)           
   ENMAX  =  175.647; ENMIN  =  131.735 eV                                      
   ICORE  =        3    local potential                                         
   LCOR   =        T    correct aug charges                                     
   LPAW   =        T    paw PP                                                  
   EAUG   =  370.139                                                            
   DEXC   =    0.000                                                            
   RMAX   =    2.359    core radius for proj-oper                               
   RAUG   =    1.300    factor for augmentation sphere                          
   RDEP   =    2.392    radius for radial grids                                 
   RDEPT  =    2.170    core radius for aug-charge                              
                                                                                
   Atomic configuration                                                         
   13 entries                                                                   
     n  l   j            E        occ.                                          
     1  0  0.50    -32976.3739   2.0000                                         
     2  0  0.50     -5094.5933   2.0000                                         
     2  1  1.50     -4572.0131   6.0000                                         
     3  0  0.50     -1028.2813   2.0000                                         
     3  1  1.50      -859.0250   6.0000                                         
     3  2  2.50      -605.7620  10.0000                                         
     4  0  0.50      -180.5540   2.0000                                         
     4  1  1.50      -127.5306   6.0000                                         
     4  2  2.50       -50.2720  10.0000                                         
     5  0  0.50       -17.4058   2.0000                                         
     5  1  0.50        -7.0851   5.0000                                         
     5  2  1.50        -7.0750   0.0000                                         
     4  3  2.50        -7.0750   0.0000                                         
   Description                                                                  
     l       E           TYP  RCUT    TYP  RCUT                                 
     0    -17.4058016     23  2.300                                             
     0    -18.7663842     23  2.300                                             
     1     -7.0850686     23  2.300                                             
     1     -4.2150896     23  2.300                                             
     2     -7.0750295     23  2.300                                             
     3     -1.3605826     23  2.300                                             
  local pseudopotential read in
  partial core-charges read in
  partial kinetic energy density read in
  atomic valenz-charges read in
  non local Contribution for L=           0  read in
    real space projection operators read in
  non local Contribution for L=           0  read in
    real space projection operators read in
  non local Contribution for L=           1  read in
    real space projection operators read in
  non local Contribution for L=           1  read in
    real space projection operators read in
  non local Contribution for L=           2  read in
    real space projection operators read in
    PAW grid and wavefunctions read in
 
   number of l-projection  operators is LMAX  =           5
   number of lm-projection operators is LMMAX =          13
 

 ----------------------------------------------------------------------------- 
|                                                                             |
|  ADVICE TO THIS USER RUNNING 'VASP/VAMP'   (HEAR YOUR MASTER'S VOICE ...):  |
|                                                                             |
|      You have a (more or less) 'large supercell' and for larger cells       |
|      it might be more efficient to use real space projection opertators     |
|      So try LREAL= Auto  in the INCAR   file.                               |
|      Mind: At the moment your POTCAR file does not contain real space       |
|       projectors, and has to be modified,  BUT if you                       |
|      want to do an extremely  accurate calculation you might also keep the  |
|      reciprocal projection scheme          (i.e. LREAL=.FALSE.)             |
|                                                                             |
 ----------------------------------------------------------------------------- 

  PAW_PBE C 08Apr2002                   :
 energy of atom  1       EATOM= -147.1560
 kinetic energy error for atom=    0.0032 (will be added to EATOM!!)
  PAW_PBE N 08Apr2002                   :
 energy of atom  2       EATOM= -264.5486
 kinetic energy error for atom=    0.0061 (will be added to EATOM!!)
  PAW_PBE H 15Jun2001                   :
 energy of atom  3       EATOM=  -12.4884
 kinetic energy error for atom=    0.0002 (will be added to EATOM!!)
  PAW_PBE Pb_d 06Sep2000                :
 energy of atom  4       EATOM=-1661.6185
 kinetic energy error for atom=    0.0012 (will be added to EATOM!!)
  PAW_PBE I 08Apr2002                   :
 energy of atom  5       EATOM= -315.8678
 kinetic energy error for atom=    0.0003 (will be added to EATOM!!)
 
 
 POSCAR: C N H Pb I                              
  positions in direct lattice
  No initial velocities read in
 exchange correlation table for  LEXCH =        8
   RHO(1)=    0.500       N(1)  =     2000
   RHO(2)=  100.500       N(2)  =     4000
 


--------------------------------------------------------------------------------------------------------


 ion  position               nearest neighbor table
   1  0.207  0.250  0.214-  33 1.10  25 1.10  17 1.11   9 1.50
   2  0.687  0.250  0.244-  34 1.10  26 1.10  18 1.11  10 1.50
   3  0.187  0.750  0.244-  35 1.10  27 1.10  19 1.11  11 1.50
   4  0.707  0.750  0.214-  36 1.10  28 1.10  20 1.11  12 1.50
   5  0.207  0.250  0.714-  37 1.10  29 1.10  21 1.11  13 1.50
   6  0.687  0.250  0.744-  38 1.10  30 1.10  22 1.11  14 1.50
   7  0.187  0.750  0.744-  39 1.10  31 1.10  23 1.11  15 1.50
   8  0.707  0.750  0.714-  40 1.10  32 1.10  24 1.11  16 1.50
   9  0.307  0.250  0.275-  57 1.05  41 1.05  49 1.05   1 1.50
  10  0.802  0.250  0.273-  42 1.05  50 1.05  58 1.06   2 1.50
  11  0.302  0.750  0.273-  43 1.05  51 1.05  59 1.06   3 1.50
  12  0.807  0.750  0.275-  60 1.05  44 1.05  52 1.05   4 1.50
  13  0.307  0.250  0.775-  61 1.05  45 1.05  53 1.05   5 1.50
  14  0.802  0.250  0.773-  46 1.05  54 1.05  62 1.06   6 1.50
  15  0.302  0.750  0.773-  47 1.05  55 1.05  63 1.06   7 1.50
  16  0.807  0.750  0.775-  64 1.05  48 1.05  56 1.05   8 1.50
  17  0.228  0.250  0.129-   1 1.11
  18  0.683  0.250  0.157-   2 1.11
  19  0.183  0.750  0.157-   3 1.11
  20  0.728  0.750  0.129-   4 1.11
  21  0.228  0.250  0.629-   5 1.11
  22  0.683  0.250  0.657-   6 1.11
  23  0.183  0.750  0.657-   7 1.11
  24  0.728  0.750  0.629-   8 1.11
  25  0.160  0.323  0.235-   1 1.10
  26  0.648  0.322  0.276-   2 1.10
  27  0.148  0.822  0.276-   3 1.10
  28  0.660  0.823  0.235-   4 1.10
  29  0.160  0.323  0.735-   5 1.10
  30  0.648  0.322  0.776-   6 1.10
  31  0.148  0.822  0.776-   7 1.10
  32  0.660  0.823  0.735-   8 1.10
  33  0.160  0.177  0.235-   1 1.10
  34  0.649  0.177  0.276-   2 1.10
  35  0.149  0.677  0.276-   3 1.10
  36  0.660  0.677  0.235-   4 1.10
  37  0.160  0.177  0.735-   5 1.10
  38  0.649  0.177  0.776-   6 1.10
  39  0.149  0.677  0.776-   7 1.10
  40  0.660  0.677  0.735-   8 1.10
  41  0.354  0.318  0.258-   9 1.05
  42  0.842  0.318  0.244-  10 1.05
  43  0.342  0.818  0.244-  11 1.05
  44  0.854  0.818  0.258-  12 1.05
  45  0.354  0.318  0.758-  13 1.05
  46  0.842  0.318  0.744-  14 1.05
  47  0.342  0.818  0.744-  15 1.05
  48  0.854  0.818  0.758-  16 1.05
  49  0.354  0.182  0.258-   9 1.05
  50  0.843  0.182  0.244-  10 1.05
  51  0.343  0.682  0.244-  11 1.05
  52  0.854  0.682  0.258-  12 1.05
  53  0.354  0.182  0.758-  13 1.05
  54  0.843  0.182  0.744-  14 1.05
  55  0.343  0.682  0.744-  15 1.05
  56  0.854  0.682  0.758-  16 1.05
  57  0.292  0.250  0.356-   9 1.05
  58  0.814  0.250  0.355-  10 1.06
  59  0.314  0.750  0.355-  11 1.06
  60  0.792  0.750  0.356-  12 1.05
  61  0.292  0.250  0.856-  13 1.05
  62  0.814  0.250  0.855-  14 1.06
  63  0.314  0.750  0.855-  15 1.06
  64  0.792  0.750  0.856-  16 1.05
  65  0.472  0.502  0.489-  90 3.11  85 3.14  77 3.17  87 3.18  73 3.22  89 3.28
  66  0.972  0.498  0.489-  89 3.11  88 3.14  78 3.17  86 3.18  74 3.22  90 3.28
  67  0.472  0.998  0.489-  92 3.11  85 3.14  79 3.17  87 3.18  75 3.22  91 3.28
  68  0.972  0.002  0.489-  91 3.11  88 3.14  80 3.17  86 3.18  76 3.22  92 3.28
  69  0.472  0.502  0.989-  94 3.11  81 3.14  73 3.17  83 3.18  77 3.22  93 3.28
  70  0.972  0.498  0.989-  93 3.11  84 3.14  74 3.17  82 3.18  78 3.22  94 3.28
  71  0.472  0.998  0.989-  96 3.11  81 3.14  75 3.17  83 3.18  79 3.22  95 3.28
  72  0.972  0.002  0.989-  95 3.11  84 3.14  76 3.17  82 3.18  80 3.22  96 3.28
  73  0.455  0.501  0.238-  69 3.17  65 3.22
  74  0.955  0.499  0.238-  70 3.17  66 3.22
  75  0.455  0.999  0.238-  71 3.17  67 3.22
  76  0.955  0.001  0.238-  72 3.17  68 3.22
  77  0.455  0.501  0.738-  65 3.17  69 3.22
  78  0.955  0.499  0.738-  66 3.17  70 3.22
  79  0.455  0.999  0.738-  67 3.17  71 3.22
  80  0.955  0.001  0.738-  68 3.17  72 3.22
  81  0.480  0.250  0.006-  71 3.14  69 3.14
  82  0.920  0.250  0.017-  72 3.18  70 3.18
  83  0.420  0.750  0.017-  69 3.18  71 3.18
  84  0.980  0.750  0.006-  70 3.14  72 3.14
  85  0.480  0.250  0.506-  67 3.14  65 3.14
  86  0.920  0.250  0.517-  68 3.18  66 3.18
  87  0.420  0.750  0.517-  65 3.18  67 3.18
  88  0.980  0.750  0.506-  66 3.14  68 3.14
  89  0.216  0.464  0.461-  66 3.11  65 3.28
  90  0.716  0.536  0.461-  65 3.11  66 3.28
  91  0.216  0.036  0.461-  68 3.11  67 3.28
  92  0.716  0.964  0.461-  67 3.11  68 3.28
  93  0.216  0.464  0.961-  70 3.11  69 3.28
  94  0.716  0.536  0.961-  69 3.11  70 3.28
  95  0.216  0.036  0.961-  72 3.11  71 3.28
  96  0.716  0.964  0.961-  71 3.11  72 3.28
 
  LATTYP: Found a triclinic cell.
 ALAT       =    17.8238589327
 B/A-ratio  =     0.6989248630
 C/A-ratio  =     1.0156975818
 COS(alpha) =     0.0001355172
 COS(beta)  =     0.5146378593
 COS(gamma) =     0.6988877578
  
  Lattice vectors:
  
 A1 = (  -0.1406063366, -12.4576271275, -12.7466742118)
 A2 = (  -0.0011956322, -12.4575380825,   0.0007464135)
 A3 = ( -12.7162481321,  -0.0020049566, -12.8856194186)


Analysis of symmetry for initial positions (statically):
=====================================================================
 Subroutine PRICEL returns following result:
 
  LATTYP: Found a triclinic cell.
 ALAT       =     8.8502626515
 B/A-ratio  =     1.4075896561
 C/A-ratio  =     0.7202149489
 COS(alpha) =     0.0000518785
 COS(beta)  =     0.0156138721
 COS(gamma) =     0.7036188608
  
  Lattice vectors:
  
 A1 = (  -6.2878208978,   6.2278110854,  -0.0694726034)
 A2 = (   0.0011956322,  12.4575380825,  -0.0007464135)
 A3 = (  -0.0697053522,  -0.0000445225,  -6.3737103126)
 
   4 primitive cells build up your supercell.
 

 Routine SETGRP: Setting up the symmetry group for a 
 triclinic supercell.


 Subroutine GETGRP returns: Found  1 space group operations
 (whereof  1 operations were pure point group operations)
 out of a pool of  2 trial point group operations.


The static configuration has the point symmetry C_1 .


Analysis of symmetry for dynamics (positions and initial velocities):
=====================================================================
 Subroutine PRICEL returns following result:
 
  LATTYP: Found a triclinic cell.
 ALAT       =     8.8502626515
 B/A-ratio  =     1.4075896561
 C/A-ratio  =     0.7202149489
 COS(alpha) =     0.0000518785
 COS(beta)  =     0.0156138721
 COS(gamma) =     0.7036188608
  
  Lattice vectors:
  
 A1 = (  -6.2878208978,   6.2278110854,  -0.0694726034)
 A2 = (   0.0011956322,  12.4575380825,  -0.0007464135)
 A3 = (  -0.0697053522,  -0.0000445225,  -6.3737103126)
 
   4 primitive cells build up your supercell.
 

 Routine SETGRP: Setting up the symmetry group for a 
 triclinic supercell.


 Subroutine GETGRP returns: Found  1 space group operations
 (whereof  1 operations were pure point group operations)
 out of a pool of  2 trial point group operations.


The dynamic configuration has the point symmetry C_1 .


 Subroutine INISYM returns: Found  1 space group operations
 (whereof  1 operations are pure point group operations),
 and found     4 'primitive' translations

 
 
 KPOINTS: Automatic 3x3x3                         

Automatic generation of k-mesh.
Space group operators:
 irot       det(A)        alpha          n_x          n_y          n_z        tau_x        tau_y        tau_z
    1     1.000000     0.000000     1.000000     0.000000     0.000000     0.000000     0.000000     0.000000
 
 Subroutine IBZKPT returns following result:
 ===========================================
 
 Found     14 irreducible k-points:
 
 Following reciprocal coordinates:
            Coordinates               Weight
  0.000000  0.000000  0.000000      1.000000
  0.333333 -0.000000 -0.000000      2.000000
  0.000000  0.333333 -0.000000      2.000000
  0.333333  0.333333  0.000000      2.000000
 -0.333333  0.333333  0.000000      2.000000
  0.000000  0.000000  0.333333      2.000000
  0.333333  0.000000  0.333333      2.000000
 -0.333333  0.000000  0.333333      2.000000
  0.000000  0.333333  0.333333      2.000000
  0.333333  0.333333  0.333333      2.000000
 -0.333333  0.333333  0.333333      2.000000
  0.000000 -0.333333  0.333333      2.000000
  0.333333 -0.333333  0.333333      2.000000
 -0.333333 -0.333333  0.333333      2.000000
 
 Following cartesian coordinates:
            Coordinates               Weight
  0.000000  0.000000  0.000000      1.000000
  0.026507 -0.000003 -0.000290      2.000000
 -0.000004  0.026758 -0.000000      2.000000
  0.026503  0.026755 -0.000290      2.000000
 -0.026511  0.026760  0.000290      2.000000
 -0.000287  0.000002  0.026152      2.000000
  0.026220 -0.000001  0.025862      2.000000
 -0.026794  0.000004  0.026442      2.000000
 -0.000291  0.026759  0.026152      2.000000
  0.026215  0.026757  0.025862      2.000000
 -0.026798  0.026762  0.026442      2.000000
 -0.000283 -0.026756  0.026152      2.000000
  0.026224 -0.026759  0.025862      2.000000
 -0.026790 -0.026753  0.026442      2.000000
 
 
 Subroutine IBZKPT_HF returns following result:
 ==============================================
 
 Found     27 k-points in 1st BZ
 the following     27 k-points will be used (e.g. in the exchange kernel)
 Following reciprocal coordinates:   # in IRBZ
  0.000000  0.000000  0.000000    0.03703704   1 t-inv F
  0.333333 -0.000000 -0.000000    0.03703704   2 t-inv F
  0.000000  0.333333 -0.000000    0.03703704   3 t-inv F
  0.333333  0.333333  0.000000    0.03703704   4 t-inv F
 -0.333333  0.333333  0.000000    0.03703704   5 t-inv F
  0.000000  0.000000  0.333333    0.03703704   6 t-inv F
  0.333333  0.000000  0.333333    0.03703704   7 t-inv F
 -0.333333  0.000000  0.333333    0.03703704   8 t-inv F
  0.000000  0.333333  0.333333    0.03703704   9 t-inv F
  0.333333  0.333333  0.333333    0.03703704  10 t-inv F
 -0.333333  0.333333  0.333333    0.03703704  11 t-inv F
  0.000000 -0.333333  0.333333    0.03703704  12 t-inv F
  0.333333 -0.333333  0.333333    0.03703704  13 t-inv F
 -0.333333 -0.333333  0.333333    0.03703704  14 t-inv F
 -0.333333  0.000000  0.000000    0.03703704   2 t-inv T
 -0.000000 -0.333333  0.000000    0.03703704   3 t-inv T
 -0.333333 -0.333333 -0.000000    0.03703704   4 t-inv T
  0.333333 -0.333333 -0.000000    0.03703704   5 t-inv T
 -0.000000  0.000000 -0.333333    0.03703704   6 t-inv T
 -0.333333 -0.000000 -0.333333    0.03703704   7 t-inv T
  0.333333 -0.000000 -0.333333    0.03703704   8 t-inv T
 -0.000000 -0.333333 -0.333333    0.03703704   9 t-inv T
 -0.333333 -0.333333 -0.333333    0.03703704  10 t-inv T
  0.333333 -0.333333 -0.333333    0.03703704  11 t-inv T
 -0.000000  0.333333 -0.333333    0.03703704  12 t-inv T
 -0.333333  0.333333 -0.333333    0.03703704  13 t-inv T
  0.333333  0.333333 -0.333333    0.03703704  14 t-inv T


--------------------------------------------------------------------------------------------------------




 Dimension of arrays:
   k-points           NKPTS =     14   k-points in BZ     NKDIM =     27   number of bands    NBANDS=    256
   number of dos      NEDOS =    301   number of ions     NIONS =     96
   non local maximal  LDIM  =      6   non local SUM 2l+1 LMDIM =     18
   total plane-waves  NPLWV = ******
   max r-space proj   IRMAX =      1   max aug-charges    IRDMAX= 314103
   dimension x,y,z NGX =   112 NGY =  108 NGZ =  112
   dimension x,y,z NGXF=   224 NGYF=  216 NGZF=  224
   support grid    NGXF=   448 NGYF=  432 NGZF=  448
   ions per type =               8   8  48   8  24
 NGX,Y,Z   is equivalent  to a cutoff of  14.80, 14.41, 14.61 a.u.
 NGXF,Y,Z  is equivalent  to a cutoff of  29.61, 28.83, 29.21 a.u.


 I would recommend the setting:
   dimension x,y,z NGX =   109 NGY =  107 NGZ =  110
 SYSTEM =  MAPbI3-Cubic                            
 POSCAR =  C N H Pb I                              

 Startparameter for this run:
   NWRITE =      2    write-flag & timer
   PREC   = accura    normal or accurate (medium, high low for compatibility)
   ISTART =      0    job   : 0-new  1-cont  2-samecut
   ICHARG =      2    charge: 1-file 2-atom 10-const
   ISPIN  =      1    spin polarized calculation?
   LNONCOLLINEAR =      F non collinear calculations
   LSORBIT =      F    spin-orbit coupling
   INIWAV =      1    electr: 0-lowe 1-rand  2-diag
   LASPH  =      F    aspherical Exc in radial PAW
   METAGGA=      F    non-selfconsistent MetaGGA calc.

 Electronic Relaxation 1
   ENCUT  =  700.0 eV  51.45 Ry    7.17 a.u.  27.13 26.87 27.50*2*pi/ulx,y,z
   ENINI  =  700.0     initial cutoff
   ENAUG  =  644.9 eV  augmentation charge cutoff
   NELM   =     60;   NELMIN=  2; NELMDL= -5     # of ELM steps 
   EDIFF  = 0.1E-07   stopping-criterion for ELM
   LREAL  =      F    real-space projection
   NLSPLINE    = F    spline interpolate recip. space projectors
   LCOMPAT=      F    compatible to vasp.4.4
   GGA_COMPAT  = T    GGA compatible to vasp.4.4-vasp.4.6
   LMAXPAW     = -100 max onsite density
   LMAXMIX     =    2 max onsite mixed and CHGCAR
   VOSKOWN=      0    Vosko Wilk Nusair interpolation
   ROPT   =    0.00000   0.00000   0.00000   0.00000
   ROPT   =    0.00000
 Ionic relaxation
   EDIFFG = 0.1E-06   stopping-criterion for IOM
   NSW    =      0    number of steps for IOM
   NBLOCK =      1;   KBLOCK =      1    inner block; outer block 
   IBRION =     -1    ionic relax: 0-MD 1-quasi-New 2-CG
   NFREE  =      0    steps in history (QN), initial steepest desc. (CG)
   ISIF   =      2    stress and relaxation
   IWAVPR =     10    prediction:  0-non 1-charg 2-wave 3-comb
   ISYM   =      3    0-nonsym 1-usesym 2-fastsym
   LCORR  =      T    Harris-Foulkes like correction to forces

   POTIM  = 0.5000    time-step for ionic-motion
   TEIN   =    0.0    initial temperature
   TEBEG  =    0.0;   TEEND  =   0.0 temperature during run
   SMASS  =  -3.00    Nose mass-parameter (am)
   estimated Nose-frequenzy (Omega)   =  0.10E-29 period in steps =****** mass=  -0.362E-26a.u.
   SCALEE = 1.0000    scale energy and forces
   NPACO  =    256;   APACO  = 16.0  distance and # of slots for P.C.
   PSTRESS=    0.0 pullay stress

  Mass of Ions in am
   POMASS =  12.01 14.00  1.00207.20126.90
  Ionic Valenz
   ZVAL   =   4.00  5.00  1.00 14.00  7.00
  Atomic Wigner-Seitz radii
   RWIGS  =  -1.00 -1.00 -1.00 -1.00 -1.00
  virtual crystal weights 
   VCA    =   1.00  1.00  1.00  1.00  1.00
   NELECT =     400.0000    total number of electrons
   NUPDOWN=      -1.0000    fix difference up-down

 DOS related values:
   EMIN   =  10.00;   EMAX   =-10.00  energy-range for DOS
   EFERMI =   0.00
   ISMEAR =     0;   SIGMA  =   0.00  broadening in eV -4-tet -1-fermi 0-gaus

 Electronic relaxation 2 (details)
   IALGO  =     58    algorithm
   LDIAG  =      T    sub-space diagonalisation (order eigenvalues)
   LSUBROT=      F    optimize rotation matrix (better conditioning)
   TURBO    =      0    0=normal 1=particle mesh
   IRESTART =      0    0=no restart 2=restart with 2 vectors
   NREBOOT  =      0    no. of reboots
   NMIN     =      0    reboot dimension
   EREF     =   0.00    reference energy to select bands
   IMIX   =      4    mixing-type and parameters
     AMIX     =   0.40;   BMIX     =  1.00
     AMIX_MAG =   1.60;   BMIX_MAG =  1.00
     AMIN     =   0.10
     WC   =   100.;   INIMIX=   1;  MIXPRE=   1;  MAXMIX= -45

 Intra band minimization:
   WEIMIN = 0.0000     energy-eigenvalue tresh-hold
   EBREAK =  0.98E-11  absolut break condition
   DEPER  =   0.30     relativ break condition  

   TIME   =   0.40     timestep for ELM

  volume/ion in A,a.u.               =      20.80       140.38
  Fermi-wavevector in a.u.,A,eV,Ry     =   0.957863  1.810099 12.483376  0.917502
  Thomas-Fermi vector in A             =   2.086919
 
 Write flags
   LWAVE  =      F    write WAVECAR
   LCHARG =      F    write CHGCAR
   LVTOT  =      F    write LOCPOT, total local potential
   LVHAR  =      F    write LOCPOT, Hartree potential only
   LELF   =      F    write electronic localiz. function (ELF)
   LORBIT =      0    0 simple, 1 ext, 2 COOP (PROOUT)


 Dipole corrections
   LMONO  =      F    monopole corrections only (constant potential shift)
   LDIPOL =      F    correct potential (dipole corrections)
   IDIPOL =      0    1-x, 2-y, 3-z, 4-all directions 
   EPSILON=  1.0000000 bulk dielectric constant

 Core level calculations are selected ICORELEVEL =  1
 Exchange correlation treatment:
   GGA     =    PE    GGA type
   LEXCH   =     8    internal setting for exchange type
   VOSKOWN=      0    Vosko Wilk Nusair interpolation
   EXXOEP  =     0    0=HF, 1=EXX-LHF (local Hartree Fock) 2=EXX OEP
   LHFCALC =     T    Hartree Fock is set to
   LSYMGRAD=     F    symmetrize gradient (conserves proper symmetry)
   PRECFOCK=fast      Normal, Fast or Accurate (Low or Medium for compatibility)
   LRHFCALC=     F    long range Hartree Fock
   LRSCOR  =     F    long range correlation only (use DFT for short range part)
   LTHOMAS =     F    Thomas Fermi screening in HF
   LMODELHF=     F    short range full HF, long range fraction AEXX
   ENCUT4O =  -1.0   cutoff for four orbital integrals eV
   LMAXFOCK=     4    L truncation for augmentation on plane wave grid
   LMAXFOCKAE=  -1    L truncation for all-electron charge restoration on plane wave grid
   NMAXFOCKAE=   1    number of basis functions for all-electron charge restoration
   LFOCKAEDFT=     F  apply the AE augmentation even for DFT
   NKREDX  =     1    reduce k-point grid by
   NKREDY  =     1    reduce k-point grid by
   NKREDZ  =     1    reduce k-point grid by
   SHIFTRED=     F    shift reduced grid of Gamma
   HFKIDENT=     F    idential grid for each k-point
   ODDONLY =     F    use only odd q-grid points
   EVENONLY=     F    use only even q-grid points
   HFALPHA =   -1.0000 decay constant for conv. correction
   MCALPHA =    0.0000 extent of test-charge in conv. correction in multipole expansion
   AEXX    =    0.2500 exact exchange contribution
   HFSCREEN=    0.2070 screening length (either q_TF or 0.3 A-1)
   HFSCREENC=   0.2070 screening length for correlation (either q_TF or 0.3 A-1)
   HFRCUT  =    0.0000 spherical cutoff for potential kernel
   ALDAX   =    0.7500 LDA exchange part
   AGGAX   =    0.7500 GGA exchange part
   ALDAC   =    1.0000 LDA correlation
   AGGAC   =    1.0000 GGA correlation
   NBANDSGWLOW=     1    first orbital included in HF term
   ENCUTFOCK=  -1.0 apply spherical cutoff to Coloumb kernel
 Linear response parameters
   LEPSILON=     F    determine dielectric tensor
   LRPA    =     F    only Hartree local field effects (RPA)
   LNABLA  =     F    use nabla operator in PAW spheres
   LVEL    =     F    velocity operator in full k-point grid
   LINTERFAST=   F  fast interpolation
   KINTER  =     0    interpolate to denser k-point grid
   CSHIFT  =0.1000    complex shift for real part using Kramers Kronig
   OMEGAMAX=  -1.0    maximum frequency
   DEG_THRESHOLD= 0.2000000E-02 threshold for treating states as degnerate
   RTIME   =    0.100 relaxation time in fs

 Orbital magnetization related:
   ORBITALMAG=     F  switch on orbital magnetization
   LCHIMAG   =     F  perturbation theory with respect to B field
   DQ        =  0.001000  dq finite difference perturbation B field



--------------------------------------------------------------------------------------------------------


 Static calculation
 charge density and potential will be updated during run
 non-spin polarized calculation
 Conjugate gradient for all bands (Freysoldt, et al. PRB 79, 241103 (2009))
 preconditioned conjugated gradient                                        
 perform sub-space diagonalisation
    before iterative eigenvector-optimisation
 modified Broyden-mixing scheme, WC =      100.0
 initial mixing is a Kerker type mixing with AMIX =  0.4000 and BMIX =      1.0000
 Hartree-type preconditioning will be used
 using additional bands           56
 reciprocal scheme for non local part
 use partial core corrections
 no Harris-corrections to forces 
 use gradient corrections 
 use of overlap-Matrix (Vanderbilt PP)
 Gauss-broadening in eV      SIGMA  =   0.00


--------------------------------------------------------------------------------------------------------


  energy-cutoff  :      700.00
  volume of cell :     1996.98
      direct lattice vectors                 reciprocal lattice vectors
    12.576837428  0.001915912  0.138198793     0.079520802 -0.000007684 -0.000869670
     0.001195632 12.457538083 -0.000746413    -0.000012224  0.080272684 -0.000000427
     0.139410704  0.000089045 12.747420625    -0.000862111  0.000004784  0.078456671

  length of vectors
    12.577596840 12.457538162 12.748182927     0.079525558  0.080272685  0.078461408


 
 k-points in units of 2pi/SCALE and weight: Automatic 3x3x3                         
   0.00000000  0.00000000  0.00000000       0.037
   0.02650693 -0.00000256 -0.00028989       0.074
  -0.00000407  0.02675756 -0.00000014       0.074
   0.02650286  0.02675500 -0.00029003       0.074
  -0.02651101  0.02676012  0.00028975       0.074
  -0.00028737  0.00000159  0.02615222       0.074
   0.02621956 -0.00000097  0.02586233       0.074
  -0.02679430  0.00000416  0.02644211       0.074
  -0.00029144  0.02675916  0.02615208       0.074
   0.02621549  0.02675659  0.02586219       0.074
  -0.02679838  0.02676172  0.02644197       0.074
  -0.00028330 -0.02675597  0.02615237       0.074
   0.02622364 -0.02675853  0.02586248       0.074
  -0.02679023 -0.02675341  0.02644226       0.074
 
 k-points in reciprocal lattice and weights: Automatic 3x3x3                         
   0.00000000  0.00000000  0.00000000       0.037
   0.33333333 -0.00000000 -0.00000000       0.074
   0.00000000  0.33333333 -0.00000000       0.074
   0.33333333  0.33333333  0.00000000       0.074
  -0.33333333  0.33333333  0.00000000       0.074
   0.00000000  0.00000000  0.33333333       0.074
   0.33333333  0.00000000  0.33333333       0.074
  -0.33333333  0.00000000  0.33333333       0.074
   0.00000000  0.33333333  0.33333333       0.074
   0.33333333  0.33333333  0.33333333       0.074
  -0.33333333  0.33333333  0.33333333       0.074
   0.00000000 -0.33333333  0.33333333       0.074
   0.33333333 -0.33333333  0.33333333       0.074
  -0.33333333 -0.33333333  0.33333333       0.074
 
 position of ions in fractional coordinates (direct lattice) 
   0.20653235  0.24994805  0.21405981
   0.68745592  0.24986850  0.24377089
   0.18745592  0.74986850  0.24377089
   0.70653235  0.74994805  0.21405981
   0.20653235  0.24994805  0.71405981
   0.68745592  0.24986850  0.74377089
   0.18745592  0.74986850  0.74377089
   0.70653235  0.74994805  0.71405981
   0.30716205  0.25003382  0.27472458
   0.80191239  0.24997347  0.27304402
   0.30191239  0.74997347  0.27304402
   0.80716205  0.75003382  0.27472458
   0.30716205  0.25003382  0.77472458
   0.80191239  0.24997347  0.77304402
   0.30191239  0.74997347  0.77304402
   0.80716205  0.75003382  0.77472458
   0.22751856  0.24981983  0.12893560
   0.68263177  0.24982236  0.15684165
   0.18263177  0.74982236  0.15684165
   0.72751856  0.74981983  0.12893560
   0.22751856  0.24981983  0.62893560
   0.68263177  0.24982236  0.65684165
   0.18263177  0.74982236  0.65684165
   0.72751856  0.74981983  0.62893560
   0.16029952  0.32250057  0.23470107
   0.64837610  0.32220381  0.27632957
   0.14837610  0.82220381  0.27632957
   0.66029952  0.82250057  0.23470107
   0.16029952  0.32250057  0.73470107
   0.64837610  0.32220381  0.77632957
   0.14837610  0.82220381  0.77632957
   0.66029952  0.82250057  0.73470107
   0.16034399  0.17745329  0.23490679
   0.64854168  0.17749885  0.27639463
   0.14854168  0.67749885  0.27639463
   0.66034399  0.67745329  0.23490679
   0.16034399  0.17745329  0.73490679
   0.64854168  0.17749885  0.77639463
   0.14854168  0.67749885  0.77639463
   0.66034399  0.67745329  0.73490679
   0.35377952  0.31819239  0.25784841
   0.84248963  0.31755618  0.24366457
   0.34248963  0.81755618  0.24366457
   0.85377952  0.81819239  0.25784841
   0.35377952  0.31819239  0.75784841
   0.84248963  0.31755618  0.74366457
   0.34248963  0.81755618  0.74366457
   0.85377952  0.81819239  0.75784841
   0.35379144  0.18180046  0.25805617
   0.84261916  0.18240931  0.24372563
   0.34261916  0.68240931  0.24372563
   0.85379144  0.68180046  0.25805617
   0.35379144  0.18180046  0.75805617
   0.84261916  0.18240931  0.74372563
   0.34261916  0.68240931  0.74372563
   0.85379144  0.68180046  0.75805617
   0.29245873  0.25017598  0.35603420
   0.81388142  0.25001107  0.35518429
   0.31388142  0.75001107  0.35518429
   0.79245873  0.75017598  0.35603420
   0.29245873  0.25017598  0.85603420
   0.81388142  0.25001107  0.85518429
   0.31388142  0.75001107  0.85518429
   0.79245873  0.75017598  0.85603420
   0.47245014  0.50154516  0.48880937
   0.97243341  0.49843443  0.48881352
   0.47243341  0.99843443  0.48881352
   0.97245014  0.00154516  0.48880937
   0.47245014  0.50154516  0.98880937
   0.97243341  0.49843443  0.98881352
   0.47243341  0.99843443  0.98881352
   0.97245014  0.00154516  0.98880937
   0.45476685  0.50081923  0.23756781
   0.95472050  0.49916287  0.23757767
   0.45472050  0.99916287  0.23757767
   0.95476685  0.00081923  0.23756781
   0.45476685  0.50081923  0.73756781
   0.95472050  0.49916287  0.73757767
   0.45472050  0.99916287  0.73757767
   0.95476685  0.00081923  0.73756781
   0.47959676  0.24997309  0.00620179
   0.91967412  0.24998493  0.01746264
   0.41967412  0.74998493  0.01746264
   0.97959676  0.74997309  0.00620179
   0.47959676  0.24997309  0.50620179
   0.91967412  0.24998493  0.51746264
   0.41967412  0.74998493  0.51746264
   0.97959676  0.74997309  0.50620179
   0.21617867  0.46423660  0.46123970
   0.71616421  0.53575828  0.46123971
   0.21616421  0.03575828  0.46123971
   0.71617867  0.96423660  0.46123970
   0.21617867  0.46423660  0.96123970
   0.71616421  0.53575828  0.96123971
   0.21616421  0.03575828  0.96123971
   0.71617867  0.96423660  0.96123970
 
 position of ions in cartesian coordinates  (Angst):
   2.62766483  3.11415208  2.75706645
   8.68030434  3.11408520  3.20226920
   2.39248344  9.34189628  3.13279659
   8.91668136  9.34387908  2.82579264
   2.69737018  3.11419661  9.13077676
   8.75000969  3.11412972  9.57597951
   2.46218879  9.34194080  9.50650691
   8.98638671  9.34392360  9.19950295
   3.90172563  3.11541873  3.54429251
  10.12388590  3.11561468  3.59124368
   3.83606500  9.34342577  3.52177108
  10.19074216  9.34514573  3.61301870
   3.97143098  3.11546325  9.91800282
  10.19359125  3.11565920  9.96495400
   3.90577035  9.34347029  9.89548139
  10.26044751  9.34519025  9.98672901
   2.87973765  3.11258746  1.67485269
   8.60751294  3.11349340  2.09347889
   2.31969204  9.34130449  2.02400628
   9.16875418  9.34231445  1.74357888
   2.94944300  3.11263198  8.04856300
   8.67721829  3.11353792  8.46718920
   2.38939739  9.34134901  8.39771660
   9.23845953  9.34235898  8.11728919
   2.04916639  4.01789113  3.01374578
   8.19342930  4.01513301  3.61185350
   1.90560841 10.24294409  3.54238090
   8.33818292 10.24761813  3.08247197
   2.11887174  4.01793565  9.38745609
   8.26313466  4.01517753  9.98556381
   1.97531376 10.24298862  9.91609121
   8.40788827 10.24766265  9.45618228
   2.04958099  2.21095927  3.01648253
   8.19534782  2.21246590  3.61281374
   1.90752693  8.44027699  3.54334113
   8.33859752  8.44068627  3.08520872
   2.11928635  2.21100379  9.39019284
   8.26505318  2.21251042  9.98652405
   1.97723228  8.44032151  9.91705145
   8.40830288  8.44073079  9.45891903
   4.48575484  3.96459455  3.33555657
  10.63020424  3.95760402  3.22228878
   4.34238335 10.18541511  3.15281618
  10.77477137 10.19432155  3.40428276
   4.55546019  3.96463907  9.70926688
  10.69990960  3.95764854  9.59599910
   4.41208870 10.18545963  9.52652649
  10.84447672 10.19436607  9.77799307
   4.48577056  2.26548697  3.33830843
  10.63168028  2.27400707  3.22318588
   4.34385938  8.50181816  3.15371328
  10.77478709  8.49521397  3.40703462
   4.55547591  2.26553149  9.71201875
  10.70138563  2.27405159  9.59689619
   4.41356473  8.50186268  9.52742359
  10.84449244  8.49525849  9.78074494
   3.72814001  3.11716877  4.57874837
  10.28586966  3.11611336  4.63997440
   3.99804876  9.34392444  4.57050180
  10.01715654  9.34689576  4.64747456
   3.79784536  3.11721329 10.95245868
  10.35557501  3.11615788 11.01368471
   4.06775411  9.34396896 10.94421211
  10.08686189  9.34694029 11.02118487
   6.01067350  6.24896664  6.29597637
  12.29887874  6.21117250  6.36512864
   6.01105785 12.43898359  6.29565603
  12.29849439  0.02115555  6.36544898
   6.08037885  6.24901116 12.66968668
  12.36858410  6.21121703 12.73883895
   6.08076320 12.43902811 12.66936635
  12.36819975  0.02120008 12.73915929
   5.75324705  6.23986702  3.09085125
  12.04108217  6.22019082  3.16007114
   5.75326127 12.44800190  3.09059854
  12.04106795  0.01205594  3.16032385
   5.82295240  6.23991155  9.46456156
  12.11078752  6.22023534  9.53378146
   5.82296662 12.44804643  9.46430885
  12.11077330  0.01210046  9.53403417
   6.03297399  3.11496873  0.14514995
  11.56932521  3.11596034  0.34951493
   5.28150431  9.34377143  0.28004233
  12.32199052  9.34469573  0.21387614
   6.10267935  3.11501325  6.51886027
  11.63903056  3.11600487  6.72322524
   5.35120967  9.34381595  6.65375264
  12.39169588  9.34474025  6.58758646
   2.78370081  5.78370031  5.90914554
   9.07202311  6.67564232  5.97818969
   2.78300658  0.44591533  5.90946350
   9.07271734 12.01342731  5.97787173
   2.85340616  5.78374484 12.28285585
   9.14172847  6.67568685 12.35190000
   2.85271194  0.44595985 12.28317381
   9.14242269 12.01347183 12.35158204
 


--------------------------------------------------------------------------------------------------------


 k-point  1 :   0.0000 0.0000 0.0000  plane waves:   84007
 k-point  2 :   0.3333-0.0000-0.0000  plane waves:   84003
 k-point  3 :   0.0000 0.3333-0.0000  plane waves:   83995
 k-point  4 :   0.3333 0.3333 0.0000  plane waves:   84018
 k-point  5 :  -0.3333 0.3333 0.0000  plane waves:   84019
 k-point  6 :   0.0000 0.0000 0.3333  plane waves:   83960
 k-point  7 :   0.3333 0.0000 0.3333  plane waves:   83937
 k-point  8 :  -0.3333 0.0000 0.3333  plane waves:   83982
 k-point  9 :   0.0000 0.3333 0.3333  plane waves:   83984
 k-point 10 :   0.3333 0.3333 0.3333  plane waves:   84012
 k-point 11 :  -0.3333 0.3333 0.3333  plane waves:   83970
 k-point 12 :   0.0000-0.3333 0.3333  plane waves:   83977
 k-point 13 :   0.3333-0.3333 0.3333  plane waves:   84013
 k-point 14 :  -0.3333-0.3333 0.3333  plane waves:   83973

 maximum and minimum number of plane-waves per node :      7062     6951

 maximum number of plane-waves:     84019
 maximum index in each direction: 
   IXMAX=   27   IYMAX=   27   IZMAX=   27
   IXMIN=  -27   IYMIN=  -27   IZMIN=  -27

 NGX is ok and might be reduce to 110
 WARNING: aliasing errors must be expected set NGY to 110 to avoid them
 NGZ is ok and might be reduce to 110
 aliasing errors are usually negligible using standard VASP settings
 and one can safely disregard these warnings

 parallel 3D FFT for wavefunctions:
    minimum data exchange during FFTs selected (reduces bandwidth)
 parallel 3D FFT for charge:
    minimum data exchange during FFTs selected (reduces bandwidth)


 FFT grid for exact exchange (Hartree Fock) 
  NGX = 56; NGY = 56; NGZ = 60

 
 Radii for the augmentation spheres in the non-local exchange
 for species   1 augmentation radius   0.944 (default was   0.699)
       energy cutoff for augmentation   2800.0
 for species   2 augmentation radius   0.957 (default was   0.709)
       energy cutoff for augmentation   2800.0
 for species   3 augmentation radius   0.702 (default was   0.520)
       energy cutoff for augmentation   2800.0
 for species   4 augmentation radius   1.558 (default was   1.154)
       energy cutoff for augmentation   2800.0
 for species   5 augmentation radius   1.603 (default was   1.188)
       energy cutoff for augmentation   2800.0

 real space projection operators:
  total allocation   :      10789.91 KBytes
  max/ min on nodes  :       1202.16        489.44

 Maximum index for augmentation-charges in exchange          234
  SETUP_FOCK is finished

 total amount of memory used by VASP on root node   222677. kBytes
========================================================================

   base      :      30000. kBytes
   nonl-proj :      82891. kBytes
   fftplans  :      15020. kBytes
   grid      :      12652. kBytes
   one-center:        124. kBytes
   HF        :        259. kBytes
   nonlr-proj:       4145. kBytes
   wavefun   :      77586. kBytes
 
     INWAV:  cpu time    0.0000: real time    0.0000
 Broyden mixing: mesh for mixing (old mesh)
   NGX = 55   NGY = 53   NGZ = 55
  (NGX  =224   NGY  =216   NGZ  =224)
  gives a total of 160325 points

 initial charge density was supplied:
 charge density of overlapping atoms calculated
 number of electron     400.0000000 magnetization 
 keeping initial charge density in first step


--------------------------------------------------------------------------------------------------------


 Maximum index for augmentation-charges         5345 (set IRDMAX)


--------------------------------------------------------------------------------------------------------


 First call to EWALD:  gamma=   0.141
 Maximum number of real-space cells 3x 3x 3
 Maximum number of reciprocal cells 3x 3x 3

 FEWALD executed in parallel
    FEWALD:  cpu time    0.0040: real time    0.0048


----------------------------------------- Iteration    1(   1)  ---------------------------------------


    POTLOK:  cpu time    0.2840: real time    0.2835
    SETDIJ:  cpu time    0.5920: real time    0.5936
    TRIAL :  cpu time    4.4523: real time    4.4561
    CORREC:  cpu time    0.0000: real time    0.0026
    --------------------------------------------
      LOOP:  cpu time    5.3643: real time    5.3984

 eigenvalue-minimisations  : 11648
 total energy-change (2. order) : 0.3507265E+05  (-0.1134493E+06)
 number of electron     400.0000000 magnetization 
 augmentation part      400.0000000 magnetization 

 Free energy of the ion-electron system (eV)
  ---------------------------------------------------
  alpha Z        PSCENC =       370.05370877
  Ewald energy   TEWEN  =    -15581.43390900
  -Hartree energ DENC   =     -8080.49687976
  -exchange      EXHF   =         0.00000000
  -V(xc)+E(xc)   XCENC  =       254.09592994
  PAW double counting   =     20708.16285019   -20051.16882790
  entropy T*S    EENTRO =        -0.00004179
  eigenvalues    EBANDS =     32773.01082371
  atomic energy  EATOM  =     24680.42500649
  ---------------------------------------------------
  free energy    TOTEN  =     35072.64866064 eV

  energy without entropy =    35072.64870244  energy(sigma->0) =    35072.64868154
  exchange ACFDT corr.  =         0.00000000  see jH, gK, PRB 81, 115126


--------------------------------------------------------------------------------------------------------




----------------------------------------- Iteration    1(   2)  ---------------------------------------


    TRIAL :  cpu time    3.5522: real time    3.5548
    CORREC:  cpu time    0.0040: real time    0.0034
    --------------------------------------------
      LOOP:  cpu time    3.5602: real time    3.5971

 eigenvalue-minimisations  :  8528
 total energy-change (2. order) :-0.2634491E+05  (-0.2563414E+05)
 number of electron     400.0000000 magnetization 
 augmentation part      400.0000000 magnetization 

 Free energy of the ion-electron system (eV)
  ---------------------------------------------------
  alpha Z        PSCENC =       370.05370877
  Ewald energy   TEWEN  =    -15581.43390900
  -Hartree energ DENC   =     -8080.49687976
  -exchange      EXHF   =         0.00000000
  -V(xc)+E(xc)   XCENC  =       254.09592994
  PAW double counting   =     20708.16285019   -20051.16882790
  entropy T*S    EENTRO =        -0.00000000
  eigenvalues    EBANDS =      6428.09701347
  atomic energy  EATOM  =     24680.42500649
  ---------------------------------------------------
  free energy    TOTEN  =      8727.73489220 eV

  energy without entropy =     8727.73489220  energy(sigma->0) =     8727.73489220
  exchange ACFDT corr.  =         0.00000000  see jH, gK, PRB 81, 115126


--------------------------------------------------------------------------------------------------------




----------------------------------------- Iteration    1(   3)  ---------------------------------------


    TRIAL :  cpu time    3.7362: real time    3.7414
    CORREC:  cpu time    0.0040: real time    0.0023
    --------------------------------------------
      LOOP:  cpu time    3.7442: real time    3.7674

 eigenvalue-minimisations  :  9008
 total energy-change (2. order) :-0.6917647E+04  (-0.6810529E+04)
 number of electron     400.0000000 magnetization 
 augmentation part      400.0000000 magnetization 

 Free energy of the ion-electron system (eV)
  ---------------------------------------------------
  alpha Z        PSCENC =       370.05370877
  Ewald energy   TEWEN  =    -15581.43390900
  -Hartree energ DENC   =     -8080.49687976
  -exchange      EXHF   =         0.00000000
  -V(xc)+E(xc)   XCENC  =       254.09592994
  PAW double counting   =     20708.16285019   -20051.16882790
  entropy T*S    EENTRO =        -0.00000000
  eigenvalues    EBANDS =      -489.54962274
  atomic energy  EATOM  =     24680.42500649
  ---------------------------------------------------
  free energy    TOTEN  =      1810.08825599 eV

  energy without entropy =     1810.08825599  energy(sigma->0) =     1810.08825599
  exchange ACFDT corr.  =         0.00000000  see jH, gK, PRB 81, 115126


--------------------------------------------------------------------------------------------------------




----------------------------------------- Iteration    1(   4)  ---------------------------------------


    TRIAL :  cpu time    4.0163: real time    4.2273
    CORREC:  cpu time    0.0000: real time    0.0012
    --------------------------------------------
      LOOP:  cpu time    4.0203: real time    4.2483

 eigenvalue-minimisations  : 10064
 total energy-change (2. order) :-0.1369720E+04  (-0.1313072E+04)
 number of electron     400.0000000 magnetization 
 augmentation part      400.0000000 magnetization 

 Free energy of the ion-electron system (eV)
  ---------------------------------------------------
  alpha Z        PSCENC =       370.05370877
  Ewald energy   TEWEN  =    -15581.43390900
  -Hartree energ DENC   =     -8080.49687976
  -exchange      EXHF   =         0.00000000
  -V(xc)+E(xc)   XCENC  =       254.09592994
  PAW double counting   =     20708.16285019   -20051.16882790
  entropy T*S    EENTRO =         0.00000000
  eigenvalues    EBANDS =     -1859.26935327
  atomic energy  EATOM  =     24680.42500649
  ---------------------------------------------------
  free energy    TOTEN  =       440.36852546 eV

  energy without entropy =      440.36852546  energy(sigma->0) =      440.36852546
  exchange ACFDT corr.  =         0.00000000  see jH, gK, PRB 81, 115126


--------------------------------------------------------------------------------------------------------




----------------------------------------- Iteration    1(   5)  ---------------------------------------


    TRIAL :  cpu time    3.7842: real time    3.7883
    CORREC:  cpu time    0.0040: real time    0.0015
    CHARGE:  cpu time    0.8681: real time    0.8675
    --------------------------------------------
      LOOP:  cpu time    4.6563: real time    4.7169

 eigenvalue-minimisations  :  9408
 total energy-change (2. order) :-0.1657348E+03  (-0.1628681E+03)
 number of electron     400.0000000 magnetization 
 augmentation part       13.0158226 magnetization 

 Free energy of the ion-electron system (eV)
  ---------------------------------------------------
  alpha Z        PSCENC =       370.05370877
  Ewald energy   TEWEN  =    -15581.43390900
  -Hartree energ DENC   =     -8080.49687976
  -exchange      EXHF   =         0.00000000
  -V(xc)+E(xc)   XCENC  =       254.09592994
  PAW double counting   =     20708.16285019   -20051.16882790
  entropy T*S    EENTRO =         0.00000000
  eigenvalues    EBANDS =     -2025.00418878
  atomic energy  EATOM  =     24680.42500649
  ---------------------------------------------------
  free energy    TOTEN  =       274.63368995 eV

  energy without entropy =      274.63368995  energy(sigma->0) =      274.63368995
  exchange ACFDT corr.  =         0.00000000  see jH, gK, PRB 81, 115126


--------------------------------------------------------------------------------------------------------




----------------------------------------- Iteration    1(   6)  ---------------------------------------


    POTLOK:  cpu time    0.2640: real time    0.2626
    SETDIJ:  cpu time    0.6360: real time    0.6396
    TRIAL :  cpu time  286.3659: real time  286.5459
    CORREC:  cpu time  287.2660: real time  287.4460
    CHARGE:  cpu time    0.8601: real time    0.8620
    --------------------------------------------
      LOOP:  cpu time  575.3920: real time  575.7751

 eigenvalue-minimisations  :     0
 total energy-change (2. order) :-0.7220249E+03  (-0.1954584E+02)
 number of electron     400.0000000 magnetization 
 augmentation part       13.3677805 magnetization 

 Free energy of the ion-electron system (eV)
  ---------------------------------------------------
  alpha Z        PSCENC =       370.05370877
  Ewald energy   TEWEN  =    -15581.43390900
  -Hartree energ DENC   =     -8134.33870315
  -exchange      EXHF   =       751.77353522
  -V(xc)+E(xc)   XCENC  =       272.52166758
  PAW double counting   =     57047.32025082   -56377.80705070
  entropy T*S    EENTRO =        -0.00000000
  eigenvalues    EBANDS =     -3475.90569078
  atomic energy  EATOM  =     24680.42500649
  ---------------------------------------------------
  free energy    TOTEN  =      -447.39118475 eV

  energy without entropy =     -447.39118475  energy(sigma->0) =     -447.39118475
  exchange ACFDT corr.  =         0.00000000  see jH, gK, PRB 81, 115126


--------------------------------------------------------------------------------------------------------




----------------------------------------- Iteration    1(   7)  ---------------------------------------


    POTLOK:  cpu time    0.2840: real time    0.2874
    SETDIJ:  cpu time    0.5920: real time    0.5895
    TRIAL :  cpu time  286.5379: real time  286.7211
    CORREC:  cpu time  287.1819: real time  287.3631
    CHARGE:  cpu time    0.8641: real time    0.8645
    --------------------------------------------
      LOOP:  cpu time  575.4640: real time  575.8708

 eigenvalue-minimisations  :     0
 total energy-change (2. order) :-0.1947836E+02  (-0.8026533E+01)
 number of electron     400.0000000 magnetization 
 augmentation part        9.8266813 magnetization 

 Free energy of the ion-electron system (eV)
  ---------------------------------------------------
  alpha Z        PSCENC =       370.05370877
  Ewald energy   TEWEN  =    -15581.43390900
  -Hartree energ DENC   =     -8418.49119609
  -exchange      EXHF   =       761.70587364
  -V(xc)+E(xc)   XCENC  =       279.47098917
  PAW double counting   =     50529.45707040   -49857.26452612
  entropy T*S    EENTRO =        -0.00000000
  eigenvalues    EBANDS =     -3230.79256063
  atomic energy  EATOM  =     24680.42500649
  ---------------------------------------------------
  free energy    TOTEN  =      -466.86954337 eV

  energy without entropy =     -466.86954337  energy(sigma->0) =     -466.86954337
  exchange ACFDT corr.  =         0.00000000  see jH, gK, PRB 81, 115126


--------------------------------------------------------------------------------------------------------




----------------------------------------- Iteration    1(   8)  ---------------------------------------


    POTLOK:  cpu time    0.2680: real time    0.2691
    SETDIJ:  cpu time    0.6360: real time    0.6362
    TRIAL :  cpu time  286.4659: real time  286.6559
    CORREC:  cpu time  287.2260: real time  287.4096
    CHARGE:  cpu time    0.8641: real time    0.8643
    --------------------------------------------
      LOOP:  cpu time  575.4600: real time  575.8465

 eigenvalue-minimisations  :     0
 total energy-change (2. order) :-0.8025993E+01  (-0.2910447E+01)
 number of electron     400.0000000 magnetization 
 augmentation part        9.4929706 magnetization 

 Free energy of the ion-electron system (eV)
  ---------------------------------------------------
  alpha Z        PSCENC =       370.05370877
  Ewald energy   TEWEN  =    -15581.43390900
  -Hartree energ DENC   =     -8342.44975793
  -exchange      EXHF   =       764.92070829
  -V(xc)+E(xc)   XCENC  =       277.60225359
  PAW double counting   =     43990.57521252   -43326.44552686
  entropy T*S    EENTRO =         0.00000000
  eigenvalues    EBANDS =     -3308.14323266
  atomic energy  EATOM  =     24680.42500649
  ---------------------------------------------------
  free energy    TOTEN  =      -474.89553680 eV

  energy without entropy =     -474.89553680  energy(sigma->0) =     -474.89553680
  exchange ACFDT corr.  =         0.00000000  see jH, gK, PRB 81, 115126


--------------------------------------------------------------------------------------------------------




----------------------------------------- Iteration    1(   9)  ---------------------------------------


    POTLOK:  cpu time    0.2640: real time    0.2659
    SETDIJ:  cpu time    0.6120: real time    0.6108
    TRIAL :  cpu time  286.6859: real time  286.8887
    CORREC:  cpu time  287.9460: real time  288.1288
    CHARGE:  cpu time    0.8761: real time    0.8770
    --------------------------------------------
      LOOP:  cpu time  576.3880: real time  576.8085

 eigenvalue-minimisations  :     0
 total energy-change (2. order) :-0.2910314E+01  (-0.9114932E+00)
 number of electron     400.0000000 magnetization 
 augmentation part        9.5974190 magnetization 

 Free energy of the ion-electron system (eV)
  ---------------------------------------------------
  alpha Z        PSCENC =       370.05370877
  Ewald energy   TEWEN  =    -15581.43390900
  -Hartree energ DENC   =     -8388.06137182
  -exchange      EXHF   =       768.00757837
  -V(xc)+E(xc)   XCENC  =       279.06455855
  PAW double counting   =     38285.08847740   -37622.16374198
  entropy T*S    EENTRO =         0.00000000
  eigenvalues    EBANDS =     -3268.78615765
  atomic energy  EATOM  =     24680.42500649
  ---------------------------------------------------
  free energy    TOTEN  =      -477.80585088 eV

  energy without entropy =     -477.80585088  energy(sigma->0) =     -477.80585088
  exchange ACFDT corr.  =         0.00000000  see jH, gK, PRB 81, 115126


--------------------------------------------------------------------------------------------------------




----------------------------------------- Iteration    1(  10)  ---------------------------------------


    POTLOK:  cpu time    0.2640: real time    0.2641
    SETDIJ:  cpu time    0.6240: real time    0.6283
    TRIAL :  cpu time  287.8380: real time  288.0425
    CORREC:  cpu time  288.0660: real time  288.2501
    CHARGE:  cpu time    0.8641: real time    0.8625
    --------------------------------------------
      LOOP:  cpu time  577.6641: real time  578.0795

 eigenvalue-minimisations  :     0
 total energy-change (2. order) :-0.9104460E+00  (-0.2349229E+00)
 number of electron     400.0000000 magnetization 
 augmentation part        9.2284658 magnetization 

 Free energy of the ion-electron system (eV)
  ---------------------------------------------------
  alpha Z        PSCENC =       370.05370877
  Ewald energy   TEWEN  =    -15581.43390900
  -Hartree energ DENC   =     -8393.45872286
  -exchange      EXHF   =       767.55688213
  -V(xc)+E(xc)   XCENC  =       278.45693346
  PAW double counting   =     35631.78014499   -34967.47986264
  entropy T*S    EENTRO =         0.00000000
  eigenvalues    EBANDS =     -3264.61647822
  atomic energy  EATOM  =     24680.42500649
  ---------------------------------------------------
  free energy    TOTEN  =      -478.71629688 eV

  energy without entropy =     -478.71629688  energy(sigma->0) =     -478.71629688
  exchange ACFDT corr.  =         0.00000000  see jH, gK, PRB 81, 115126


--------------------------------------------------------------------------------------------------------




----------------------------------------- Iteration    1(  11)  ---------------------------------------


    POTLOK:  cpu time    0.2720: real time    0.2716
    SETDIJ:  cpu time    0.6360: real time    0.6344
    TRIAL :  cpu time  287.9460: real time  288.1596
    CORREC:  cpu time  289.5661: real time  289.7474
    CHARGE:  cpu time    0.8681: real time    0.8668
    --------------------------------------------
      LOOP:  cpu time  579.2882: real time  579.6982

 eigenvalue-minimisations  :     0
 total energy-change (2. order) :-0.2349099E+00  (-0.1193137E+00)
 number of electron     400.0000000 magnetization 
 augmentation part        9.3240658 magnetization 

 Free energy of the ion-electron system (eV)
  ---------------------------------------------------
  alpha Z        PSCENC =       370.05370877
  Ewald energy   TEWEN  =    -15581.43390900
  -Hartree energ DENC   =     -8364.29548117
  -exchange      EXHF   =       766.92889009
  -V(xc)+E(xc)   XCENC  =       277.46939860
  PAW double counting   =     34977.67474414   -34313.72967096
  entropy T*S    EENTRO =         0.00000000
  eigenvalues    EBANDS =     -3292.04389378
  atomic energy  EATOM  =     24680.42500649
  ---------------------------------------------------
  free energy    TOTEN  =      -478.95120682 eV

  energy without entropy =     -478.95120682  energy(sigma->0) =     -478.95120682
  exchange ACFDT corr.  =         0.00000000  see jH, gK, PRB 81, 115126


--------------------------------------------------------------------------------------------------------




----------------------------------------- Iteration    1(  12)  ---------------------------------------


    POTLOK:  cpu time    0.2640: real time    0.2639
    SETDIJ:  cpu time    0.6320: real time    0.6325
    TRIAL :  cpu time  288.8341: real time  289.0387
    CORREC:  cpu time  289.1981: real time  289.3835
    CHARGE:  cpu time    0.8681: real time    0.8670
    --------------------------------------------
      LOOP:  cpu time  579.7962: real time  580.2037

 eigenvalue-minimisations  :     0
 total energy-change (2. order) :-0.1191770E+00  (-0.3672442E-01)
 number of electron     400.0000000 magnetization 
 augmentation part        9.3412493 magnetization 

 Free energy of the ion-electron system (eV)
  ---------------------------------------------------
  alpha Z        PSCENC =       370.05370877
  Ewald energy   TEWEN  =    -15581.43390900
  -Hartree energ DENC   =     -8382.18423408
  -exchange      EXHF   =       767.46493512
  -V(xc)+E(xc)   XCENC  =       277.93351163
  PAW double counting   =     34848.75478111   -34184.32181431
  entropy T*S    EENTRO =         0.00000000
  eigenvalues    EBANDS =     -3275.76236955
  atomic energy  EATOM  =     24680.42500649
  ---------------------------------------------------
  free energy    TOTEN  =      -479.07038383 eV

  energy without entropy =     -479.07038383  energy(sigma->0) =     -479.07038383
  exchange ACFDT corr.  =         0.00000000  see jH, gK, PRB 81, 115126


--------------------------------------------------------------------------------------------------------




----------------------------------------- Iteration    1(  13)  ---------------------------------------


    POTLOK:  cpu time    0.2640: real time    0.2610
    SETDIJ:  cpu time    0.6320: real time    0.6351
    TRIAL :  cpu time  288.4060: real time  288.5888
    CORREC:  cpu time  288.2740: real time  288.4542
    CHARGE:  cpu time    0.8761: real time    0.8748
    --------------------------------------------
      LOOP:  cpu time  578.4522: real time  578.8310

 eigenvalue-minimisations  :     0
 total energy-change (2. order) :-0.3665161E-01  (-0.1033698E-01)
 number of electron     400.0000000 magnetization 
 augmentation part        9.3139036 magnetization 

 Free energy of the ion-electron system (eV)
  ---------------------------------------------------
  alpha Z        PSCENC =       370.05370877
  Ewald energy   TEWEN  =    -15581.43390900
  -Hartree energ DENC   =     -8383.00097721
  -exchange      EXHF   =       767.57289678
  -V(xc)+E(xc)   XCENC  =       278.01972644
  PAW double counting   =     35056.73689981   -34392.29002513
  entropy T*S    EENTRO =         0.00000000
  eigenvalues    EBANDS =     -3275.19036240
  atomic energy  EATOM  =     24680.42500649
  ---------------------------------------------------
  free energy    TOTEN  =      -479.10703544 eV

  energy without entropy =     -479.10703544  energy(sigma->0) =     -479.10703544
  exchange ACFDT corr.  =         0.00000000  see jH, gK, PRB 81, 115126


--------------------------------------------------------------------------------------------------------




----------------------------------------- Iteration    1(  14)  ---------------------------------------


    POTLOK:  cpu time    0.2640: real time    0.2624
    SETDIJ:  cpu time    0.6360: real time    0.6382
    TRIAL :  cpu time  287.5900: real time  287.8019
    CORREC:  cpu time  288.1300: real time  288.3096
    CHARGE:  cpu time    0.8641: real time    0.8649
    --------------------------------------------
      LOOP:  cpu time  577.4841: real time  577.8914

 eigenvalue-minimisations  :     0
 total energy-change (2. order) :-0.1033494E-01  (-0.3130307E-02)
 number of electron     400.0000000 magnetization 
 augmentation part        9.3482441 magnetization 

 Free energy of the ion-electron system (eV)
  ---------------------------------------------------
  alpha Z        PSCENC =       370.05370877
  Ewald energy   TEWEN  =    -15581.43390900
  -Hartree energ DENC   =     -8379.58522744
  -exchange      EXHF   =       767.49053292
[...]


 FORCES acting on ions:
    Electron-Ion                     Ewald-Force                    Non-Local-Force
 -----------------------------------------------------------------------------------------------
   0.833E+02 0.553E-01 0.459E+02   -.898E+02 -.634E-01 -.503E+02   0.624E+01 0.728E-02 0.404E+01
   0.817E+02 0.503E-01 0.259E+02   -.892E+02 -.595E-01 -.282E+02   0.709E+01 0.855E-02 0.197E+01
   0.817E+02 0.503E-01 0.259E+02   -.892E+02 -.595E-01 -.282E+02   0.709E+01 0.855E-02 0.197E+01
   0.833E+02 0.553E-01 0.459E+02   -.898E+02 -.634E-01 -.503E+02   0.624E+01 0.728E-02 0.404E+01
   0.833E+02 0.553E-01 0.459E+02   -.898E+02 -.634E-01 -.503E+02   0.624E+01 0.728E-02 0.404E+01
   0.817E+02 0.503E-01 0.259E+02   -.892E+02 -.595E-01 -.282E+02   0.709E+01 0.855E-02 0.197E+01
   0.817E+02 0.503E-01 0.259E+02   -.892E+02 -.595E-01 -.282E+02   0.709E+01 0.855E-02 0.197E+01
   0.833E+02 0.553E-01 0.459E+02   -.898E+02 -.634E-01 -.503E+02   0.624E+01 0.728E-02 0.404E+01
   -.337E+02 -.519E-01 -.209E+02   0.327E+02 0.459E-01 0.200E+02   0.116E+01 0.522E-02 0.112E+01
   -.389E+02 -.122E+00 -.116E+02   0.375E+02 0.119E+00 0.121E+02   0.167E+01 0.208E-02 -.240E+00
   -.389E+02 -.122E+00 -.116E+02   0.375E+02 0.119E+00 0.121E+02   0.167E+01 0.208E-02 -.240E+00
   -.337E+02 -.519E-01 -.209E+02   0.327E+02 0.459E-01 0.200E+02   0.116E+01 0.522E-02 0.112E+01
   -.337E+02 -.519E-01 -.209E+02   0.327E+02 0.459E-01 0.200E+02   0.116E+01 0.522E-02 0.112E+01
   -.389E+02 -.122E+00 -.116E+02   0.375E+02 0.119E+00 0.121E+02   0.167E+01 0.208E-02 -.240E+00
   -.389E+02 -.122E+00 -.116E+02   0.375E+02 0.119E+00 0.121E+02   0.167E+01 0.208E-02 -.240E+00
   -.337E+02 -.519E-01 -.209E+02   0.327E+02 0.459E-01 0.200E+02   0.116E+01 0.522E-02 0.112E+01
   -.470E+00 0.650E-01 0.500E+02   0.146E+01 -.722E-01 -.548E+02   -.110E+01 0.785E-02 0.538E+01
   0.103E+02 0.272E-01 0.505E+02   -.108E+02 -.302E-01 -.554E+02   0.510E+00 0.301E-02 0.546E+01
   0.103E+02 0.272E-01 0.505E+02   -.108E+02 -.302E-01 -.554E+02   0.510E+00 0.301E-02 0.546E+01
   -.470E+00 0.650E-01 0.500E+02   0.146E+01 -.722E-01 -.548E+02   -.110E+01 0.785E-02 0.538E+01
   -.470E+00 0.650E-01 0.500E+02   0.146E+01 -.722E-01 -.548E+02   -.110E+01 0.785E-02 0.538E+01
   0.103E+02 0.272E-01 0.505E+02   -.108E+02 -.302E-01 -.554E+02   0.510E+00 0.301E-02 0.546E+01
   0.103E+02 0.272E-01 0.505E+02   -.108E+02 -.302E-01 -.554E+02   0.510E+00 0.301E-02 0.546E+01
   -.470E+00 0.650E-01 0.500E+02   0.146E+01 -.722E-01 -.548E+02   -.110E+01 0.785E-02 0.538E+01
   0.334E+02 -.392E+02 -.627E+01   -.363E+02 0.435E+02 0.742E+01   0.302E+01 -.454E+01 -.121E+01
   0.265E+02 -.393E+02 -.140E+02   -.289E+02 0.436E+02 0.159E+02   0.259E+01 -.451E+01 -.202E+01
   0.265E+02 -.393E+02 -.140E+02   -.289E+02 0.436E+02 0.159E+02   0.259E+01 -.451E+01 -.202E+01
   0.334E+02 -.392E+02 -.627E+01   -.363E+02 0.435E+02 0.742E+01   0.302E+01 -.454E+01 -.121E+01
   0.334E+02 -.392E+02 -.627E+01   -.363E+02 0.435E+02 0.742E+01   0.302E+01 -.454E+01 -.121E+01
   0.265E+02 -.393E+02 -.140E+02   -.289E+02 0.436E+02 0.159E+02   0.259E+01 -.451E+01 -.202E+01
   0.265E+02 -.393E+02 -.140E+02   -.289E+02 0.436E+02 0.159E+02   0.259E+01 -.451E+01 -.202E+01
   0.334E+02 -.392E+02 -.627E+01   -.363E+02 0.435E+02 0.742E+01   0.302E+01 -.454E+01 -.121E+01
   0.334E+02 0.392E+02 -.638E+01   -.363E+02 -.435E+02 0.754E+01   0.302E+01 0.453E+01 -.122E+01
   0.265E+02 0.393E+02 -.140E+02   -.288E+02 -.436E+02 0.159E+02   0.258E+01 0.452E+01 -.202E+01
   0.265E+02 0.393E+02 -.140E+02   -.288E+02 -.436E+02 0.159E+02   0.258E+01 0.452E+01 -.202E+01
   0.334E+02 0.392E+02 -.638E+01   -.363E+02 -.435E+02 0.754E+01   0.302E+01 0.453E+01 -.122E+01
   0.334E+02 0.392E+02 -.638E+01   -.363E+02 -.435E+02 0.754E+01   0.302E+01 0.453E+01 -.122E+01
   0.265E+02 0.393E+02 -.140E+02   -.288E+02 -.436E+02 0.159E+02   0.258E+01 0.452E+01 -.202E+01
   0.265E+02 0.393E+02 -.140E+02   -.288E+02 -.436E+02 0.159E+02   0.258E+01 0.452E+01 -.202E+01
   0.334E+02 0.392E+02 -.638E+01   -.363E+02 -.435E+02 0.754E+01   0.302E+01 0.453E+01 -.122E+01
   -.357E+02 -.476E+02 0.128E+02   0.391E+02 0.526E+02 -.140E+02   -.371E+01 -.539E+01 0.131E+01
   -.307E+02 -.488E+02 0.217E+02   0.337E+02 0.539E+02 -.239E+02   -.327E+01 -.539E+01 0.236E+01
   -.307E+02 -.488E+02 0.217E+02   0.337E+02 0.539E+02 -.239E+02   -.327E+01 -.539E+01 0.236E+01
   -.357E+02 -.476E+02 0.128E+02   0.391E+02 0.526E+02 -.140E+02   -.371E+01 -.539E+01 0.131E+01
   -.357E+02 -.476E+02 0.128E+02   0.391E+02 0.526E+02 -.140E+02   -.371E+01 -.539E+01 0.131E+01
   -.307E+02 -.488E+02 0.217E+02   0.337E+02 0.539E+02 -.239E+02   -.327E+01 -.539E+01 0.236E+01
   -.307E+02 -.488E+02 0.217E+02   0.337E+02 0.539E+02 -.239E+02   -.327E+01 -.539E+01 0.236E+01
   -.357E+02 -.476E+02 0.128E+02   0.391E+02 0.526E+02 -.140E+02   -.371E+01 -.539E+01 0.131E+01
   -.357E+02 0.476E+02 0.126E+02   0.391E+02 -.526E+02 -.138E+02   -.371E+01 0.539E+01 0.129E+01
   -.308E+02 0.488E+02 0.216E+02   0.338E+02 -.538E+02 -.238E+02   -.328E+01 0.538E+01 0.236E+01
   -.308E+02 0.488E+02 0.216E+02   0.338E+02 -.538E+02 -.238E+02   -.328E+01 0.538E+01 0.236E+01
   -.357E+02 0.476E+02 0.126E+02   0.391E+02 -.526E+02 -.138E+02   -.371E+01 0.539E+01 0.129E+01
   -.357E+02 0.476E+02 0.126E+02   0.391E+02 -.526E+02 -.138E+02   -.371E+01 0.539E+01 0.129E+01
   -.308E+02 0.488E+02 0.216E+02   0.338E+02 -.538E+02 -.238E+02   -.328E+01 0.538E+01 0.236E+01
   -.308E+02 0.488E+02 0.216E+02   0.338E+02 -.538E+02 -.238E+02   -.328E+01 0.538E+01 0.236E+01
   -.357E+02 0.476E+02 0.126E+02   0.391E+02 -.526E+02 -.138E+02   -.371E+01 0.539E+01 0.129E+01
   0.128E+02 -.942E-01 -.641E+02   -.139E+02 0.105E+00 0.702E+02   0.110E+01 -.114E-01 -.673E+01
   -.607E+01 -.428E-01 -.589E+02   0.686E+01 0.461E-01 0.646E+02   -.101E+01 -.291E-02 -.634E+01
   -.607E+01 -.428E-01 -.589E+02   0.686E+01 0.461E-01 0.646E+02   -.101E+01 -.291E-02 -.634E+01
   0.128E+02 -.942E-01 -.641E+02   -.139E+02 0.105E+00 0.702E+02   0.110E+01 -.114E-01 -.673E+01
   0.128E+02 -.942E-01 -.641E+02   -.139E+02 0.105E+00 0.702E+02   0.110E+01 -.114E-01 -.673E+01
   -.607E+01 -.428E-01 -.589E+02   0.686E+01 0.461E-01 0.646E+02   -.101E+01 -.291E-02 -.634E+01
   -.607E+01 -.428E-01 -.589E+02   0.686E+01 0.461E-01 0.646E+02   -.101E+01 -.291E-02 -.634E+01
   0.128E+02 -.942E-01 -.641E+02   -.139E+02 0.105E+00 0.702E+02   0.110E+01 -.114E-01 -.673E+01
   -.304E+02 -.122E+02 -.117E+02   0.291E+02 0.123E+02 0.114E+02   0.121E+01 -.104E+00 0.320E+00
   -.303E+02 0.123E+02 -.117E+02   0.290E+02 -.125E+02 0.114E+02   0.120E+01 0.115E+00 0.318E+00
   -.303E+02 0.123E+02 -.117E+02   0.290E+02 -.125E+02 0.114E+02   0.120E+01 0.115E+00 0.318E+00
   -.304E+02 -.122E+02 -.117E+02   0.291E+02 0.123E+02 0.114E+02   0.121E+01 -.104E+00 0.320E+00
   -.304E+02 -.122E+02 -.117E+02   0.291E+02 0.123E+02 0.114E+02   0.121E+01 -.104E+00 0.320E+00
   -.303E+02 0.123E+02 -.117E+02   0.290E+02 -.125E+02 0.114E+02   0.120E+01 0.115E+00 0.318E+00
   -.303E+02 0.123E+02 -.117E+02   0.290E+02 -.125E+02 0.114E+02   0.120E+01 0.115E+00 0.318E+00
   -.304E+02 -.122E+02 -.117E+02   0.291E+02 0.123E+02 0.114E+02   0.121E+01 -.104E+00 0.320E+00
   -.172E+02 -.641E+01 0.558E+01   0.174E+02 0.643E+01 -.551E+01   -.877E-01 -.119E-01 -.780E-01
   -.171E+02 0.649E+01 0.559E+01   0.173E+02 -.651E+01 -.552E+01   -.865E-01 0.130E-01 -.776E-01
   -.171E+02 0.649E+01 0.559E+01   0.173E+02 -.651E+01 -.552E+01   -.865E-01 0.130E-01 -.776E-01
   -.172E+02 -.641E+01 0.558E+01   0.174E+02 0.643E+01 -.551E+01   -.877E-01 -.119E-01 -.780E-01
   -.172E+02 -.641E+01 0.558E+01   0.174E+02 0.643E+01 -.551E+01   -.877E-01 -.119E-01 -.780E-01
   -.171E+02 0.649E+01 0.559E+01   0.173E+02 -.651E+01 -.552E+01   -.865E-01 0.130E-01 -.776E-01
   -.171E+02 0.649E+01 0.559E+01   0.173E+02 -.651E+01 -.552E+01   -.865E-01 0.130E-01 -.776E-01
   -.172E+02 -.641E+01 0.558E+01   0.174E+02 0.643E+01 -.551E+01   -.877E-01 -.119E-01 -.780E-01
   -.332E+02 -.444E-01 -.162E+02   0.333E+02 0.456E-01 0.167E+02   -.108E+00 -.102E-02 -.506E+00
   0.533E+01 -.635E-01 -.161E+02   -.564E+01 0.648E-01 0.168E+02   0.337E+00 -.116E-02 -.766E+00
   0.533E+01 -.635E-01 -.161E+02   -.564E+01 0.648E-01 0.168E+02   0.337E+00 -.116E-02 -.766E+00
   -.332E+02 -.444E-01 -.162E+02   0.333E+02 0.456E-01 0.167E+02   -.108E+00 -.102E-02 -.506E+00
   -.332E+02 -.444E-01 -.162E+02   0.333E+02 0.456E-01 0.167E+02   -.108E+00 -.102E-02 -.506E+00
   0.533E+01 -.635E-01 -.161E+02   -.564E+01 0.648E-01 0.168E+02   0.337E+00 -.116E-02 -.766E+00
   0.533E+01 -.635E-01 -.161E+02   -.564E+01 0.648E-01 0.168E+02   0.337E+00 -.116E-02 -.766E+00
   -.332E+02 -.444E-01 -.162E+02   0.333E+02 0.456E-01 0.167E+02   -.108E+00 -.102E-02 -.506E+00
   0.590E+01 0.548E+01 -.307E+01   -.537E+01 -.583E+01 0.270E+01   -.565E+00 0.352E+00 0.411E+00
   0.590E+01 -.547E+01 -.303E+01   -.536E+01 0.582E+01 0.266E+01   -.565E+00 -.353E+00 0.412E+00
   0.590E+01 -.547E+01 -.303E+01   -.536E+01 0.582E+01 0.266E+01   -.565E+00 -.353E+00 0.412E+00
   0.590E+01 0.548E+01 -.307E+01   -.537E+01 -.583E+01 0.270E+01   -.565E+00 0.352E+00 0.411E+00
   0.590E+01 0.548E+01 -.307E+01   -.537E+01 -.583E+01 0.270E+01   -.565E+00 0.352E+00 0.411E+00
   0.590E+01 -.547E+01 -.303E+01   -.536E+01 0.582E+01 0.266E+01   -.565E+00 -.353E+00 0.412E+00
   0.590E+01 -.547E+01 -.303E+01   -.536E+01 0.582E+01 0.266E+01   -.565E+00 -.353E+00 0.412E+00
   0.590E+01 0.548E+01 -.307E+01   -.537E+01 -.583E+01 0.270E+01   -.565E+00 0.352E+00 0.411E+00
 -----------------------------------------------------------------------------------------------
   -.607E+02 -.117E+00 -.236E+02   -.426E-13 0.178E-14 -.344E-12   0.569E+02 0.109E+00 0.222E+02
 
 
 POSITION                                       TOTAL-FORCE (eV/Angst)
 -----------------------------------------------------------------------------------
      2.62766      3.11415      2.75707         0.045618     -0.000500     -0.212698
      8.68030      3.11409      3.20227        -0.026574     -0.000270     -0.218165
      2.39248      9.34190      3.13280        -0.026574     -0.000270     -0.218165
      8.91668      9.34388      2.82579         0.045618     -0.000500     -0.212698
      2.69737      3.11420      9.13078         0.045618     -0.000500     -0.212698
      8.75001      3.11413      9.57598        -0.026574     -0.000270     -0.218165
      2.46219      9.34194      9.50651        -0.026574     -0.000270     -0.218165
      8.98639      9.34392      9.19950         0.045618     -0.000500     -0.212698
      3.90173      3.11542      3.54429         0.255143     -0.000450      0.311015
     10.12389      3.11561      3.59124         0.385806     -0.000813      0.255748
      3.83607      9.34343      3.52177         0.385806     -0.000813      0.255748
     10.19074      9.34515      3.61302         0.255143     -0.000450      0.311015
      3.97143      3.11546      9.91800         0.255143     -0.000450      0.311015
     10.19359      3.11566      9.96495         0.385806     -0.000813      0.255748
      3.90577      9.34347      9.89548         0.385806     -0.000813      0.255748
     10.26045      9.34519      9.98673         0.255143     -0.000450      0.311015
      2.87974      3.11259      1.67485        -0.164267      0.001009      0.776954
      8.60751      3.11349      2.09348         0.088049      0.000212      0.769223
      2.31969      9.34130      2.02401         0.088049      0.000212      0.769223
      9.16875      9.34231      1.74358        -0.164267      0.001009      0.776954
      2.94944      3.11263      8.04856        -0.164267      0.001009      0.776954
      8.67722      3.11354      8.46719         0.088049      0.000212      0.769223
      2.38940      9.34135      8.39772         0.088049      0.000212      0.769223
      9.23846      9.34236      8.11729        -0.164267      0.001009      0.776954
      2.04917      4.01789      3.01375         0.335479     -0.391593     -0.105449
      8.19343      4.01513      3.61185         0.303136     -0.392249     -0.188159
      1.90561     10.24294      3.54238         0.303136     -0.392249     -0.188159
      8.33818     10.24762      3.08247         0.335479     -0.391593     -0.105449
      2.11887      4.01794      9.38746         0.335479     -0.391593     -0.105449
      8.26313      4.01518      9.98556         0.303136     -0.392249     -0.188159
      1.97531     10.24299      9.91609         0.303136     -0.392249     -0.188159
      8.40789     10.24766      9.45618         0.335479     -0.391593     -0.105449
      2.04958      2.21096      3.01648         0.334127      0.391013     -0.107283
      8.19535      2.21247      3.61281         0.301070      0.392343     -0.188981
      1.90753      8.44028      3.54334         0.301070      0.392343     -0.188981
      8.33860      8.44069      3.08521         0.334127      0.391013     -0.107283
      2.11929      2.21100      9.39019         0.334127      0.391013     -0.107283
      8.26505      2.21251      9.98652         0.301070      0.392343     -0.188981
      1.97723      8.44032      9.91705         0.301070      0.392343     -0.188981
      8.40830      8.44073      9.45892         0.334127      0.391013     -0.107283
      4.48575      3.96459      3.33556        -0.483794     -0.596278      0.127105
     10.63020      3.95760      3.22229        -0.439084     -0.578697      0.263467
      4.34238     10.18542      3.15282        -0.439084     -0.578697      0.263467
     10.77477     10.19432      3.40428        -0.483794     -0.596278      0.127105
      4.55546      3.96464      9.70927        -0.483794     -0.596278      0.127105
     10.69991      3.95765      9.59600        -0.439084     -0.578697      0.263467
      4.41209     10.18546      9.52653        -0.439084     -0.578697      0.263467
     10.84448     10.19437      9.77799        -0.483794     -0.596278      0.127105
      4.48577      2.26549      3.33831        -0.485167      0.598093      0.124411
     10.63168      2.27401      3.22319        -0.441604      0.579731      0.262382
      4.34386      8.50182      3.15371        -0.441604      0.579731      0.262382
     10.77479      8.49521      3.40703        -0.485167      0.598093      0.124411
      4.55548      2.26553      9.71202        -0.485167      0.598093      0.124411
     10.70139      2.27405      9.59690        -0.441604      0.579731      0.262382
      4.41356      8.50186      9.52742        -0.441604      0.579731      0.262382
     10.84449      8.49526      9.78074        -0.485167      0.598093      0.124411
      3.72814      3.11717      4.57875         0.091796     -0.001201     -0.949062
     10.28587      3.11611      4.63997        -0.265400      0.000187     -0.965644
      3.99805      9.34392      4.57050        -0.265400      0.000187     -0.965644
     10.01716      9.34690      4.64747         0.091796     -0.001201     -0.949062
      3.79785      3.11721     10.95246         0.091796     -0.001201     -0.949062
     10.35558      3.11616     11.01368        -0.265400      0.000187     -0.965644
      4.06775      9.34397     10.94421        -0.265400      0.000187     -0.965644
     10.08686      9.34694     11.02118         0.091796     -0.001201     -0.949062
      6.01067      6.24897      6.29598         0.016754      0.007240      0.004074
     12.29888      6.21117      6.36513         0.016622     -0.007517      0.004065
      6.01106     12.43898      6.29566         0.016622     -0.007517      0.004065
     12.29849      0.02116      6.36545         0.016754      0.007240      0.004074
      6.08038      6.24901     12.66969         0.016754      0.007240      0.004074
     12.36858      6.21122     12.73884         0.016622     -0.007517      0.004065
      6.08076     12.43903     12.66937         0.016622     -0.007517      0.004065
     12.36820      0.02120     12.73916         0.016754      0.007240      0.004074
      5.75325      6.23987      3.09085         0.052074      0.009002     -0.013790
     12.04108      6.22019      3.16007         0.051985     -0.009428     -0.013787
      5.75326     12.44800      3.09060         0.051985     -0.009428     -0.013787
     12.04107      0.01206      3.16032         0.052074      0.009002     -0.013790
      5.82295      6.23991      9.46456         0.052074      0.009002     -0.013790
     12.11079      6.22024      9.53378         0.051985     -0.009428     -0.013787
      5.82297     12.44805      9.46431         0.051985     -0.009428     -0.013787
     12.11077      0.01210      9.53403         0.052074      0.009002     -0.013790
      6.03297      3.11497      0.14515         0.077074      0.000171     -0.024573
     11.56933      3.11596      0.34951         0.049995      0.000172     -0.024870
      5.28150      9.34377      0.28004         0.049995      0.000172     -0.024870
     12.32199      9.34470      0.21388         0.077074      0.000171     -0.024573
      6.10268      3.11501      6.51886         0.077074      0.000171     -0.024573
     11.63903      3.11600      6.72323         0.049995      0.000172     -0.024870
      5.35121      9.34382      6.65375         0.049995      0.000172     -0.024870
     12.39170      9.34474      6.58759         0.077074      0.000171     -0.024573
      2.78370      5.78370      5.90915        -0.049437      0.020726      0.057129
      9.07202      6.67564      5.97819        -0.049403     -0.020903      0.056887
      2.78301      0.44592      5.90946        -0.049403     -0.020903      0.056887
      9.07272     12.01343      5.97787        -0.049437      0.020726      0.057129
      2.85341      5.78374     12.28286        -0.049437      0.020726      0.057129
      9.14173      6.67569     12.35190        -0.049403     -0.020903      0.056887
      2.85271      0.44596     12.28317        -0.049403     -0.020903      0.056887
      9.14242     12.01347     12.35158        -0.049437      0.020726      0.057129
 -----------------------------------------------------------------------------------
    total drift:                               -0.003660      0.000419     -0.000030


--------------------------------------------------------------------------------------------------------



  FREE ENERGIE OF THE ION-ELECTRON SYSTEM (eV)
  ---------------------------------------------------
  free  energy   TOTEN  =      -479.12324398 eV

  energy  without entropy=     -479.12324398  energy(sigma->0) =     -479.12324398
 


--------------------------------------------------------------------------------------------------------


    POTLOK:  cpu time    1.0801: real time    1.0807


--------------------------------------------------------------------------------------------------------


     LOOP+:  cpu time18966.2253: real time18981.3531
    4ORBIT:  cpu time    0.0000: real time    0.0000

 total amount of memory used by VASP on root node   247472. kBytes
========================================================================

   base      :      30000. kBytes
   nonl-proj :      82891. kBytes
   fftplans  :      15020. kBytes
   grid      :      12652. kBytes
   one-center:        124. kBytes
   HF        :        259. kBytes
   nonlr-proj:      28940. kBytes
   wavefun   :      77586. kBytes
 
  
  
 General timing and accounting informations for this job:
 ========================================================
  
                  Total CPU time used (sec):    19016.117
                            User time (sec):    19005.116
                          System time (sec):       11.001
                         Elapsed time (sec):    19047.495
  
                   Maximum memory used (kb):      383812.
                   Average memory used (kb):           0.
  
                          Minor page faults:       151616
                          Major page faults:            0
                 Voluntary context switches:          996
