 running on   24 total cores
 distrk:  each k-point on   24 cores,    1 groups
 distr:  one band on    3 cores,    8 groups
 using from now: INCAR     
 vasp.5.4.1 24Jun15 (build Nov 25 2015 16:01:35) complex                        
  
 POSCAR found type information on POSCAR  C  N  H  Pb I 
 POSCAR found :  5 types and      96 ions
 scaLAPACK will be used

 ----------------------------------------------------------------------------- 
|                                                                             |
|  ADVICE TO THIS USER RUNNING 'VASP/VAMP'   (HEAR YOUR MASTER'S VOICE ...):  |
|                                                                             |
|      You have a (more or less) 'large supercell' and for larger cells       |
|      it might be more efficient to use real space projection opertators     |
|      So try LREAL= Auto  in the INCAR   file.                               |
|      Mind: At the moment your POTCAR file does not contain real space       |
|       projectors, and has to be modified,  BUT if you                       |
|      want to do an extremely  accurate calculation you might also keep the  |
|      reciprocal projection scheme          (i.e. LREAL=.FALSE.)             |
|                                                                             |
 ----------------------------------------------------------------------------- 


 ----------------------------------------------------------------------------- 
|                                                                             |
|  ADVICE TO THIS USER RUNNING 'VASP/VAMP'   (HEAR YOUR MASTER'S VOICE ...):  |
|                                                                             |
|      You enforced a specific xc-type in the INCAR file,                     |
|      a different type was found on the POTCAR file                          |
|          I HOPE YOU KNOW, WHAT YOU ARE  DOING                               |
|                                                                             |
 ----------------------------------------------------------------------------- 

 LDA part: xc-table for Pade appr. of Perdew
 POSCAR, INCAR and KPOINTS ok, starting setup
 WARNING: small aliasing (wrap around) errors must be expected
 FFT: planning ...
 WAVECAR not read
 entering main loop
       N       E                     dE             d eps       ncg     rms          rms(c)
DAV:   1     0.360106816006E+04    0.36011E+04   -0.18947E+05  7176   0.170E+03
DAV:   2     0.200306624389E+03   -0.34008E+04   -0.32058E+04  7992   0.355E+02
DAV:   3    -0.398417086157E+03   -0.59872E+03   -0.59002E+03  9464   0.172E+02
DAV:   4    -0.438590260318E+03   -0.40173E+02   -0.39999E+02  9600   0.490E+01
DAV:   5    -0.440119410396E+03   -0.15292E+01   -0.15269E+01  9760   0.925E+00    0.297E+01
DAV:   6    -0.419545489594E+03    0.20574E+02   -0.41486E+01  9488   0.103E+01    0.157E+01
DAV:   7    -0.417070550915E+03    0.24749E+01   -0.14713E+01 10200   0.639E+00    0.780E+00
DAV:   8    -0.416899749094E+03    0.17080E+00   -0.30695E+00  8584   0.319E+00    0.184E+00
DAV:   9    -0.416827038274E+03    0.72711E-01   -0.75569E-01  9424   0.175E+00    0.733E-01
DAV:  10    -0.416838742058E+03   -0.11704E-01   -0.10866E-01  8960   0.588E-01    0.458E-01
DAV:  11    -0.416838674811E+03    0.67247E-04   -0.13282E-02  9928   0.270E-01    0.200E-01
DAV:  12    -0.416840037373E+03   -0.13626E-02   -0.94002E-03  9800   0.155E-01    0.107E-01
DAV:  13    -0.416840177057E+03   -0.13968E-03   -0.14012E-03  8408   0.782E-02    0.725E-02
DAV:  14    -0.416840219490E+03   -0.42433E-04   -0.27592E-04  8656   0.291E-02    0.322E-02
DAV:  15    -0.416840263957E+03   -0.44467E-04   -0.15726E-04  8192   0.207E-02    0.119E-02
DAV:  16    -0.416840267893E+03   -0.39357E-05   -0.15411E-05 10496   0.759E-03    0.123E-02
DAV:  17    -0.416840267824E+03    0.68838E-07   -0.39468E-06  8264   0.351E-03    0.551E-03
DAV:  18    -0.416840267870E+03   -0.46621E-07   -0.89186E-06  9136   0.472E-03    0.379E-03
DAV:  19    -0.416840267848E+03    0.22432E-07   -0.89252E-07  7904   0.222E-03    0.247E-03
DAV:  20    -0.416840267854E+03   -0.60354E-08   -0.51886E-07  8544   0.112E-03    0.438E-04
DAV:  21    -0.416840267892E+03   -0.38002E-07   -0.47656E-08  6416   0.485E-04    0.347E-04
DAV:  22    -0.416840267889E+03    0.32451E-08   -0.61965E-09  4856   0.262E-04
   1 F= -.41684027E+03 E0= -.41684027E+03  d E =0.000000E+00
Application 22085374 resources: utime ~168183s, stime ~96s, Rss ~640348, inblocks ~184891, outblocks ~194552
