Name                                    
   5.65360000000000     
     0.500000    0.500000    0.000000
     0.500000    0.000000   -0.500000
     0.000000    0.500000   -0.500000
   Ga   As
     1     1
Direct
  0.000000  0.000000  0.000000
  0.250000  0.250000  0.250000
 
   60   60   60
 0.74109821042E+03 0.72877946158E+03 0.69296002997E+03 0.63687211513E+03 0.56535307803E+03
 0.48416180459E+03 0.39925511528E+03 0.31616119975E+03 0.23952804902E+03 0.17285226397E+03
 0.11834372900E+03 0.76876896386E+02 0.48012794127E+02 0.30115858313E+02 0.20601229008E+02
 0.16319972278E+02 0.14103959822E+02 0.12429521152E+02 0.11163042942E+02 0.10205372427E+02
 0.94694956844E+01 0.88919262914E+01 0.84313673164E+01 0.80624400769E+01 0.77691824074E+01
 0.75403257714E+01 0.73667389295E+01 0.72405720445E+01 0.71553213925E+01 0.71061440753E+01
 0.70900817720E+01 0.71061438002E+01 0.71553210173E+01 0.72405718151E+01 0.73667390150E+01
 0.75403261611E+01 0.77691829133E+01 0.80624404446E+01 0.84313673803E+01 0.88919260801E+01
 0.94694954104E+01 0.10205372355E+02 0.11163043210E+02 0.12429521649E+02 0.14103960210E+02
 0.16319972176E+02 0.20601228244E+02 0.30115857123E+02 0.48012793171E+02 0.76876896535E+02
 0.11834373096E+03 0.17285226794E+03 0.23952805447E+03 0.31616120558E+03 0.39925512017E+03
 0.48416180752E+03 0.56535307869E+03 0.63687211401E+03 0.69296002817E+03 0.72877946030E+03
 0.72877946158E+03 0.70465236911E+03 0.65861701186E+03 0.59476587700E+03 0.51846010880E+03
 0.43560716145E+03 0.35197287566E+03 0.27263941973E+03 0.20165017343E+03 0.14181738959E+03
 0.94639801779E+02 0.60293932603E+02 0.37703660963E+02 0.24721109037E+02 0.18443701317E+02
 0.15650223240E+02 0.13792964628E+02 0.12382319845E+02 0.11323816010E+02 0.10522453930E+02
 0.99033050286E+01 0.94152399147E+01 0.90262960558E+01 0.87169034013E+01 0.84741525156E+01
 0.82881852745E+01 0.81505997352E+01 0.80541840110E+01 0.79932022804E+01 0.79637088007E+01
 0.79637087602E+01 0.79932021823E+01 0.80541839065E+01 0.81505996826E+01 0.82881853037E+01
 0.84741526212E+01 0.87169035446E+01 0.90262961973E+01 0.94152400328E+01 0.99033051373E+01
 0.10522454058E+02 0.11323816178E+02 0.12382320032E+02 0.13792964776E+02 0.15650223276E+02
 0.18443701219E+02 0.24721108891E+02 0.37703660994E+02 0.60293933153E+02 0.94639803232E+02
 0.14181739227E+03 0.20165017746E+03 0.27263942503E+03 0.35197288186E+03 0.43560716804E+03
 0.51846011516E+03 0.59476588256E+03 0.65861701616E+03 0.70465237181E+03 0.72877946250E+03
 0.69296002997E+03 0.65861701186E+03 0.60487311245E+03 0.53640644799E+03 0.45878108652E+03
 0.37774412665E+03 0.29861691645E+03 0.22585570752E+03 0.16278753951E+03 0.11147998035E+03
 0.72698898298E+02 0.45939425482E+02 0.29551354710E+02 0.20989607962E+02 0.17193189418E+02
 0.15154731011E+02 0.13612485206E+02 0.12459012578E+02 0.11597055984E+02 0.10942522823E+02
 0.10434581120E+02 0.10033927932E+02 0.97165396626E+01 0.94673034706E+01 0.92754306284E+01
 0.91320212669E+01 0.90293115975E+01 0.89608168978E+01 0.89216938033E+01 0.89089830073E+01
 0.89216939288E+01 0.89608170531E+01 0.90293116525E+01 0.91320211440E+01 0.92754303591E+01
 0.94673031914E+01 0.97165395406E+01 0.10033928070E+02 0.10434581486E+02 0.10942523260E+02
 0.11597056290E+02 0.12459012623E+02 0.13612485016E+02 0.15154730772E+02 0.17193189386E+02
 0.20989608342E+02 0.29551355541E+02 0.45939426646E+02 0.72698899612E+02 0.11147998176E+03
 0.16278754123E+03 0.22585571005E+03 0.29861692043E+03 0.37774413253E+03 0.45878109430E+03
 0.53640645700E+03 0.60487312138E+03 0.65861701911E+03 0.69296003404E+03 0.70477449516E+03
 0.63687211513E+03 0.59476587700E+03 0.53640644799E+03 0.46674270779E+03 0.39123059193E+03
 0.31519698683E+03 0.24333339680E+03 0.17935697746E+03 0.12581987306E+03 0.84024430022E+02
 0.54016998628E+02 0.34666613211E+02 0.23855585352E+02 0.18797374843E+02 0.16464554271E+02
 0.14814673435E+02 0.13579768840E+02 0.12666671768E+02 0.11985687199E+02 0.11467484022E+02
 0.11065286314E+02 0.10750008118E+02 0.10503762605E+02 0.10314515236E+02 0.10172812436E+02
 0.10070435078E+02 0.10000283193E+02 0.99567253281E+01 0.99359131816E+01 0.99359133473E+01
 0.99567257097E+01 0.10000283520E+02 0.10070435088E+02 0.10172812047E+02 0.10314514607E+02
 0.10503762059E+02 0.10750007956E+02 0.11065286635E+02 0.11467484643E+02 0.11985687751E+02
 0.12666671907E+02 0.13579768470E+02 0.14814672794E+02 0.16464553842E+02 0.18797375090E+02
 0.23855586444E+02 0.34666614872E+02 0.54017000246E+02 0.84024430967E+02 0.12581987308E+03
 0.17935697698E+03 0.24333339686E+03 0.31519698873E+03 0.39123059664E+03 0.46674271539E+03
 0.53640645741E+03 0.59476588627E+03 0.63687212193E+03 0.65894877375E+03 0.65894877125E+03
 0.56535307803E+03 0.51846010880E+03 0.45878108652E+03 0.39123059193E+03 0.32089594378E+03
 0.25249557131E+03 0.18997683957E+03 0.13626097149E+03 0.93106863065E+02 0.61063963411E+02
 0.39508539255E+02 0.26781722513E+02 0.20448308683E+02 0.17667716309E+02 0.15944032979E+02
 0.14649266543E+02 0.13699747040E+02 0.13004433824E+02 0.12487672388E+02 0.12095821943E+02
 0.11794524026E+02 0.11562666756E+02 0.11386606993E+02 0.11256175734E+02 0.11162702793E+02
 0.11098552697E+02 0.11057394062E+02 0.11034567315E+02 0.11027268422E+02 0.11034567742E+02
 0.11057394635E+02 0.11098553021E+02 0.11162702603E+02 0.11256175057E+02 0.11386606154E+02
 0.11562666191E+02 0.11794524024E+02 0.12095822466E+02 0.12487673070E+02 0.13004434176E+02
 0.13699746751E+02 0.14649265700E+02 0.15944032078E+02 0.17667716013E+02 0.20448309446E+02
 0.26781724258E+02 0.39508541311E+02 0.61063964775E+02 0.93106862904E+02 0.13626096963E+03
 0.18997683673E+03 0.25249556894E+03 0.32089594347E+03 0.39123059471E+03 0.45878109228E+03
 0.51846011619E+03 0.56535308489E+03 0.59533529275E+03 0.60565221462E+03 0.59533528864E+03
 0.48416180459E+03 0.43560716145E+03 0.37774412665E+03 0.31519698683E+03 0.25249557131E+03
 0.19363420779E+03 0.14175992573E+03 0.98981808695E+02 0.66278469772E+02 0.43492533139E+02
 0.29421576237E+02 0.22022424260E+02 0.18728688286E+02 0.16952951875E+02 0.15627031020E+02
 0.14661071927E+02 0.13966883430E+02 0.13465321142E+02 0.13097204024E+02 0.12823188204E+02
 0.12618723229E+02 0.12468232456E+02 0.12360598912E+02 0.12286605511E+02 0.12238075718E+02
 0.12208005425E+02 0.12190962608E+02 0.12183330860E+02 0.12183331122E+02 0.12190963233E+02
 0.12208006023E+02 0.12238075901E+02 0.12286605118E+02 0.12360598116E+02 0.12468231667E+02
 0.12618722854E+02 0.12823188401E+02 0.13097204590E+02 0.13465321618E+02 0.13966883373E+02
 0.14661071197E+02 0.15627029927E+02 0.16952951066E+02 0.18728688414E+02 0.22022425593E+02
 0.29421578415E+02 0.43492535237E+02 0.66278470670E+02 0.98981807622E+02 0.14175992268E+03
 0.19363420363E+03 0.25249556752E+03 0.31519698484E+03 0.37774412726E+03 0.43560716440E+03
 0.48416180863E+03 0.51922732711E+03 0.53762135765E+03 0.53762135632E+03 0.51922732370E+03
 0.39925511528E+03 0.35197287566E+03 0.29861691645E+03 0.24333339680E+03 0.18997683957E+03
 0.14175992573E+03 0.10101397887E+03 0.69050217088E+02 0.46112141577E+02 0.31422735736E+02
 0.23339076821E+02 0.19617528974E+02 0.17795037697E+02 0.16471781863E+02 0.15513792048E+02
 0.14839168238E+02 0.14368329880E+02 0.14038436173E+02 0.13805952804E+02 0.13642995038E+02
 0.13531851583E+02 0.13460210759E+02 0.13418131607E+02 0.13396795275E+02 0.13388464521E+02
 0.13386898190E+02 0.13387668826E+02 0.13388203918E+02 0.13387669279E+02 0.13386898838E+02
 0.13388464991E+02 0.13396795295E+02 0.13418131158E+02 0.13460210085E+02 0.13531851048E+02
 0.13642994908E+02 0.13805953078E+02 0.14038436573E+02 0.14368330003E+02 0.14839167809E+02
 0.15513791128E+02 0.16471780882E+02 0.17795037281E+02 0.19617529620E+02 0.23339078598E+02
 0.31422738152E+02 0.46112143732E+02 0.69050218007E+02 0.10101397796E+03 0.14175992304E+03
 0.18997683582E+03 0.24333339310E+03 0.29861691381E+03 0.35197287459E+03 0.39925511562E+03
 0.43647436862E+03 0.46029498325E+03 0.46849524649E+03 0.46029498245E+03 0.43647436760E+03
 0.31616119975E+03 0.27263941973E+03 0.22585570752E+03 0.17935697746E+03 0.13626097149E+03
 0.98981808695E+02 0.69050217088E+02 0.47025519960E+02 0.32501852502E+02 0.24217358320E+02
 0.20269851078E+02 0.18429216435E+02 0.17144811428E+02 0.16222015572E+02 0.15587481618E+02
 0.15164034874E+02 0.14887360416E+02 0.14710957952E+02 0.14604055787E+02 0.14546796307E+02
 0.14525476236E+02 0.14529212751E+02 0.14548361303E+02 0.14574296857E+02 0.14599835648E+02
 0.14619647970E+02 0.14630353348E+02 0.14630353531E+02 0.14619648425E+02 0.14599836143E+02
 0.14574297147E+02 0.14548361263E+02 0.14529212436E+02 0.14525475850E+02 0.14546796066E+02
 0.14604055800E+02 0.14710958138E+02 0.14887360549E+02 0.15164034711E+02 0.15587481069E+02
 0.16222014798E+02 0.17144810820E+02 0.18429216464E+02 0.20269852071E+02 0.24217360285E+02
 0.32501855060E+02 0.47025522474E+02 0.69050218862E+02 0.98981809263E+02 0.13626097075E+03
 0.17935697569E+03 0.22585570527E+03 0.27263941755E+03 0.31616119803E+03 0.35280891705E+03
 0.37932975208E+03 0.39325638777E+03 0.39325638794E+03 0.37932975265E+03 0.35280891816E+03
 0.23952804902E+03 0.20165017343E+03 0.16278753951E+03 0.12581987306E+03 0.93106863065E+02
 0.66278469772E+02 0.46112141577E+02 0.32501852502E+02 0.24526027867E+02 0.20617268345E+02
 0.18823365573E+02 0.17613419875E+02 0.16753724469E+02 0.16180492354E+02 0.15821273268E+02
 0.15612496640E+02 0.15506205731E+02 0.15469498904E+02 0.15480582515E+02 0.15524271119E+02
 0.15588532827E+02 0.15662665973E+02 0.15736924661E+02 0.15802951903E+02 0.15854314209E+02
 0.15886700724E+02 0.15897742993E+02 0.15886700888E+02 0.15854314470E+02 0.15802952162E+02
 0.15736924832E+02 0.15662666018E+02 0.15588532771E+02 0.15524271031E+02 0.15480582462E+02
 0.15469498902E+02 0.15506205734E+02 0.15612496559E+02 0.15821273030E+02 0.16180491955E+02
 0.16753724027E+02 0.17613419620E+02 0.18823365799E+02 0.20617269304E+02 0.24526029696E+02
 0.32501855113E+02 0.46112144701E+02 0.66278472957E+02 0.93106865821E+02 0.12581987498E+03
 0.16278754037E+03 0.20165017324E+03 0.23952804805E+03 0.27331150397E+03 0.30001307353E+03
 0.31714247225E+03 0.32304559309E+03 0.31714247299E+03 0.30001307478E+03 0.27331150533E+03
 0.17285226397E+03 0.14181738959E+03 0.11147998035E+03 0.84024430022E+02 0.61063963411E+02
 0.43492533139E+02 0.31422735736E+02 0.24217358320E+02 0.20617268345E+02 0.18957079149E+02
 0.17853935104E+02 0.17083609357E+02 0.16591862601E+02 0.16312628900E+02 0.16185103314E+02
 0.16161492941E+02 0.16207751657E+02 0.16300576497E+02 0.16423353709E+02 0.16562758557E+02
 0.16706800678E+02 0.16844337603E+02 0.16965531962E+02 0.17062110750E+02 0.17128203302E+02
 0.17161504900E+02 0.17161504872E+02 0.17128203247E+02 0.17062110726E+02 0.16965532027E+02
 0.16844337769E+02 0.16706800902E+02 0.16562758755E+02 0.16423353801E+02 0.16300576456E+02
 0.16207751514E+02 0.16161492762E+02 0.16185103154E+02 0.16312628771E+02 0.16591862463E+02
 0.17083609176E+02 0.17853934917E+02 0.18957079139E+02 0.20617268805E+02 0.24217359620E+02
 0.31422738121E+02 0.43492536639E+02 0.61063967726E+02 0.84024434548E+02 0.11147998440E+03
 0.14181739254E+03 0.17285226553E+03 0.20205345480E+03 0.22682842706E+03 0.24484193934E+03
 0.25432548867E+03 0.25432548895E+03 0.24484194000E+03 0.22682842756E+03 0.20205345451E+03
 0.11834372900E+03 0.94639801779E+02 0.72698898298E+02 0.54016998628E+02 0.39508539255E+02
 0.29421576237E+02 0.23339076821E+02 0.20269851078E+02 0.18823365573E+02 0.17853935104E+02
 0.17195435630E+02 0.16802546746E+02 0.16616615647E+02 0.16581276619E+02 0.16650463543E+02
 0.16790089539E+02 0.16975945311E+02 0.17190201010E+02 0.17418202570E+02 0.17646492709E+02
 0.17862180375E+02 0.18051029402E+02 0.18201193567E+02 0.18307937018E+02 0.18371041598E+02
 0.18391839724E+02 0.18371041351E+02 0.18307936665E+02 0.18201193313E+02 0.18051029398E+02
 0.17862180636E+02 0.17646493103E+02 0.17418202896E+02 0.17190201096E+02 0.16975945126E+02
 0.16790089199E+02 0.16650463235E+02 0.16581276476E+02 0.16616615675E+02 0.16802546783E+02
 0.17195435477E+02 0.17853934641E+02 0.18823364945E+02 0.20269850660E+02 0.23339077183E+02
 0.29421577851E+02 0.39508542313E+02 0.54017002908E+02 0.72698903137E+02 0.94639806372E+02
 0.11834373262E+03 0.14189448801E+03 0.16317870120E+03 0.18014858783E+03 0.19109258028E+03
 0.19487345765E+03 0.19109258038E+03 0.18014858765E+03 0.16317870020E+03 0.14189448573E+03
 0.76876896386E+02 0.60293932603E+02 0.45939425482E+02 0.34666613211E+02 0.26781722513E+02
 0.22022424260E+02 0.19617528974E+02 0.18429216435E+02 0.17613419875E+02 0.17083609357E+02
 0.16802546746E+02 0.16719516773E+02 0.16783851289E+02 0.16952580784E+02 0.17192681384E+02
 0.17479751136E+02 0.17795102727E+02 0.18122851656E+02 0.18447997596E+02 0.18752989168E+02
 0.19016362037E+02 0.19225813897E+02 0.19378186092E+02 0.19475911753E+02 0.19523266913E+02
 0.19523266704E+02 0.19475911236E+02 0.19378185526E+02 0.19225813565E+02 0.19016362083E+02
 0.18752989536E+02 0.18447998050E+02 0.18122851931E+02 0.17795102650E+02 0.17479750736E+02
 0.17192680865E+02 0.16952580406E+02 0.16783851187E+02 0.16719516888E+02 0.16802546801E+02
 0.17083609036E+02 0.17613418973E+02 0.18429215066E+02 0.19617527536E+02 0.22022423360E+02
 0.26781722709E+02 0.34666614732E+02 0.45939428219E+02 0.60293936016E+02 0.76876899793E+02
 0.94385881261E+02 0.11123112629E+03 0.12574292566E+03 0.13639900850E+03 0.14204023337E+03
 0.14204023327E+03 0.13639900808E+03 0.12574292464E+03 0.11123112439E+03 0.94385878456E+02
 0.48012794127E+02 0.37703660963E+02 0.29551354710E+02 0.23855585352E+02 0.20448308683E+02
 0.18728688286E+02 0.17795037697E+02 0.17144811428E+02 0.16753724469E+02 0.16591862601E+02
 0.16616615647E+02 0.16783851289E+02 0.17054781266E+02 0.17398440868E+02 0.17790980300E+02
 0.18213324555E+02 0.18648599624E+02 0.19079878171E+02 0.19481113133E+02 0.19825774216E+02
 0.20100611641E+02 0.20303567320E+02 0.20439761911E+02 0.20517038081E+02 0.20541957896E+02
 0.20517037650E+02 0.20439761250E+02 0.20303566728E+02 0.20100611368E+02 0.19825774334E+02
 0.19481113510E+02 0.19079878536E+02 0.18648599729E+02 0.18213324286E+02 0.17790979746E+02
 0.17398440264E+02 0.17054780870E+02 0.16783851202E+02 0.16616615773E+02 0.16591862623E+02
 0.16753724040E+02 0.17144810287E+02 0.17795035861E+02 0.18728686043E+02 0.20448306485E+02
 0.23855583730E+02 0.29551353935E+02 0.37703661112E+02 0.48012794990E+02 0.59747589567E+02
 0.71846295804E+02 0.83067800317E+02 0.92172659131E+02 0.98108226213E+02 0.10016941451E+03
 0.98108225917E+02 0.92172658510E+02 0.83067799351E+02 0.71846294595E+02 0.59747588348E+02
 0.30115858313E+02 0.24721109037E+02 0.20989607962E+02 0.18797374843E+02 0.17667716309E+02
 0.16952951875E+02 0.16471781863E+02 0.16222015572E+02 0.16180492354E+02 0.16312628900E+02
 0.16581276619E+02 0.16952580784E+02 0.17398440868E+02 0.17896254775E+02 0.18427087255E+02
 0.18973440380E+02 0.19515819042E+02 0.20019518790E+02 0.20452969534E+02 0.20800613311E+02
 0.21060453667E+02 0.21239741067E+02 0.21349917640E+02 0.21401792469E+02 0.21401792281E+02
 0.21349917148E+02 0.21239740475E+02 0.21060453197E+02 0.20800613122E+02 0.20452969632E+02
 0.20019519051E+02 0.19515819246E+02 0.18973440355E+02 0.18427086932E+02 0.17896254236E+02
 0.17398440300E+02 0.16952580402E+02 0.16581276523E+02 0.16312629045E+02 0.16180492497E+02
 0.16222015386E+02 0.16471781026E+02 0.16952950185E+02 0.17667713829E+02 0.18797371760E+02
 0.20989604722E+02 0.24721106059E+02 0.30115855940E+02 0.36928072066E+02 0.44585346212E+02
 0.52283839255E+02 0.59120390833E+02 0.64241047825E+02 0.66982423653E+02 0.66982423537E+02
 0.64241047542E+02 0.59120390602E+02 0.52283839367E+02 0.44585346955E+02 0.36928073620E+02
 0.20601229008E+02 0.18443701317E+02 0.17193189418E+02 0.16464554271E+02 0.15944032979E+02
 0.15627031020E+02 0.15513792048E+02 0.15587481618E+02 0.15821273268E+02 0.16185103314E+02
 0.16650463543E+02 0.17192681384E+02 0.17790980300E+02 0.18427087255E+02 0.19083330170E+02
 0.19738167125E+02 0.20349688739E+02 0.20880047690E+02 0.21309627048E+02 0.21634919688E+02
 0.21864139283E+02 0.22011719296E+02 0.22092772948E+02 0.22118433978E+02 0.22092772755E+02
 0.22011718960E+02 0.21864138894E+02 0.21634919350E+02 0.21309626846E+02 0.20880047662E+02
 0.20349688849E+02 0.19738167265E+02 0.19083330211E+02 0.18427087104E+02 0.17790979939E+02
 0.17192680919E+02 0.16650463168E+02 0.16185103222E+02 0.15821273561E+02 0.15587482207E+02
 0.15513792616E+02 0.15627031143E+02 0.15944032163E+02 0.16464552290E+02 0.17193186267E+02
 0.18443697346E+02 0.20601224875E+02 0.23782354557E+02 0.27823198090E+02 0.32322452579E+02
 0.36724321011E+02 0.40426433035E+02 0.42893955194E+02 0.43759943842E+02 0.42893955016E+02
 0.40426432979E+02 0.36724321545E+02 0.32322454113E+02 0.27823200786E+02 0.23782358220E+02
 0.16319972278E+02 0.15650223240E+02 0.15154731011E+02 0.14814673435E+02 0.14649266543E+02
 0.14661071927E+02 0.14839168238E+02 0.15164034874E+02 0.15612496640E+02 0.16161492941E+02
 0.16790089539E+02 0.17479751136E+02 0.18213324555E+02 0.18973440380E+02 0.19738167125E+02
 0.20460910604E+02 0.21096128871E+02 0.21618169002E+02 0.22020000765E+02 0.22309060860E+02
 0.22501521782E+02 0.22616179056E+02 0.22668983100E+02 0.22668983113E+02 0.22616179063E+02
 0.22501521707E+02 0.22309060651E+02 0.22020000446E+02 0.21618168684E+02 0.21096128701E+02
 0.20460910677E+02 0.19738167402E+02 0.18973440702E+02 0.18213324711E+02 0.17479750983E+02
 0.16790089127E+02 0.16161492522E+02 0.15612496579E+02 0.15164035470E+02 0.14839169540E+02
 0.14661073609E+02 0.14649268033E+02 0.14814674017E+02 0.15154730181E+02 0.15650220961E+02
 0.16319968891E+02 0.17393227394E+02 0.19000912576E+02 0.21069948200E+02 0.23360901980E+02
 0.25534606273E+02 0.27234149198E+02 0.28166246233E+02 0.28166246064E+02 0.27234148897E+02
 0.25534606337E+02 0.23360902951E+02 0.21069950375E+02 0.19000915820E+02 0.17393231137E+02
 0.14103959822E+02 0.13792964628E+02 0.13612485206E+02 0.13579768840E+02 0.13699747040E+02
 0.13966883430E+02 0.14368329880E+02 0.14887360416E+02 0.15506205731E+02 0.16207751657E+02
 0.16975945311E+02 0.17795102727E+02 0.18648599624E+02 0.19515819042E+02 0.20349688739E+02
 0.21096128871E+02 0.21721488297E+02 0.22212929200E+02 0.22574892150E+02 0.22823432689E+02
 0.22979736358E+02 0.23063970756E+02 0.23090349342E+02 0.23063970974E+02 0.22979736637E+02
 0.22823432812E+02 0.22574891983E+02 0.22212928784E+02 0.21721487847E+02 0.21096128660E+02
 0.20349688938E+02 0.19515819591E+02 0.18648600264E+02 0.17795103114E+02 0.16975945222E+02
 0.16207751156E+02 0.15506205189E+02 0.14887360375E+02 0.14368330784E+02 0.13966885407E+02
 0.13699749738E+02 0.13579771576E+02 0.13612487202E+02 0.13792965285E+02 0.14103959067E+02
 0.14516192069E+02 0.15018232521E+02 0.15697875201E+02 0.16565346412E+02 0.17517264019E+02
 0.18385449645E+02 0.18994167383E+02 0.19213040098E+02 0.18994166869E+02 0.18385449001E+02
 0.17517263808E+02 0.16565347068E+02 0.15697876750E+02 0.15018234520E+02 0.14516193792E+02
 0.12429521152E+02 0.12382319845E+02 0.12459012578E+02 0.12666671768E+02 0.13004433824E+02
 0.13465321142E+02 0.14038436173E+02 0.14710957952E+02 0.15469498904E+02 0.16300576497E+02
 0.17190201010E+02 0.18122851656E+02 0.19079878171E+02 0.20019518790E+02 0.20880047690E+02
 0.21618169002E+02 0.22212929200E+02 0.22663243302E+02 0.22982684875E+02 0.23192910982E+02
 0.23317016619E+02 0.23373832295E+02 0.23373832494E+02 0.23317017093E+02 0.23192911445E+02
 0.22982685035E+02 0.22663243041E+02 0.22212928650E+02 0.21618168483E+02 0.20880047540E+02
 0.20019519165E+02 0.19079878926E+02 0.18122852429E+02 0.17190201381E+02 0.16300576241E+02
 0.15469498152E+02 0.14710957171E+02 0.14038436000E+02 0.13465322070E+02 0.13004436003E+02
 0.12666674863E+02 0.12459015920E+02 0.12382322730E+02 0.12429523089E+02 0.12584738963E+02
 0.12823780928E+02 0.13116074542E+02 0.13427975878E+02 0.13745600294E+02 0.14059336150E+02
 0.14320278163E+02 0.14469755487E+02 0.14469755113E+02 0.14320277206E+02 0.14059335030E+02
 0.13745599437E+02 0.13427975485E+02 0.13116074473E+02 0.12823780737E+02 0.12584738076E+02
 0.11163042942E+02 0.11323816010E+02 0.11597055984E+02 0.11985687199E+02 0.12487672388E+02
 0.13097204024E+02 0.13805952804E+02 0.14604055787E+02 0.15480582515E+02 0.16423353709E+02
 0.17418202570E+02 0.18447997596E+02 0.19481113133E+02 0.20452969534E+02 0.21309627048E+02
 0.22020000765E+02 0.22574892150E+02 0.22982684875E+02 0.23263056218E+02 0.23440095854E+02
 0.23535999098E+02 0.23566142383E+02 0.23535999532E+02 0.23440096481E+02 0.23263056689E+02
 0.22982684921E+02 0.22574891734E+02 0.22020000109E+02 0.21309626517E+02 0.20452969444E+02
 0.19481113566E+02 0.18447998333E+02 0.17418203204E+02 0.16423353823E+02 0.15480581931E+02
 0.14604054675E+02 0.13805951641E+02 0.13097203428E+02 0.12487672821E+02 0.11985688820E+02
 0.11597058569E+02 0.11323819042E+02 0.11163045873E+02 0.11106035707E+02 0.11138130348E+02
 0.11239344710E+02 0.11385797762E+02 0.11551766518E+02 0.11712052889E+02 0.11844317567E+02
 0.11931091683E+02 0.11961282647E+02 0.11931090961E+02 0.11844316331E+02 0.11712051445E+02
 0.11551765097E+02 0.11385796391E+02 0.11239343189E+02 0.11138128420E+02 0.11106033233E+02
 0.10205372427E+02 0.10522453930E+02 0.10942522823E+02 0.11467484022E+02 0.12095821943E+02
 0.12823188204E+02 0.13642995038E+02 0.14546796307E+02 0.15524271119E+02 0.16562758557E+02
 0.17646492709E+02 0.18752989168E+02 0.19825774216E+02 0.20800613311E+02 0.21634919688E+02
 0.22309060860E+02 0.22823432689E+02 0.23192910982E+02 0.23440095854E+02 0.23588639875E+02
 0.23657632062E+02 0.23657632290E+02 0.23588640439E+02 0.23440096459E+02 0.23192911306E+02
 0.22823432547E+02 0.22309060302E+02 0.21634918972E+02 0.20800612777E+02 0.19825774107E+02
 0.18752989496E+02 0.17646493232E+02 0.16562758893E+02 0.15524270902E+02 0.14546795390E+02
 0.13642993564E+02 0.12823186562E+02 0.12095820647E+02 0.11467483486E+02 0.10942523236E+02
 0.10522455232E+02 0.10205374337E+02 0.99855517363E+01 0.98533336571E+01 0.97954089952E+01
 0.97954745085E+01 0.98352861929E+01 0.98960354760E+01 0.99599327168E+01 0.10011830482E+02
 0.10040689167E+02 0.10040688929E+02 0.10011829812E+02 0.99599317091E+01 0.98960342264E+01
 0.98352847472E+01 0.97954728576E+01 0.97954071169E+01 0.98533315714E+01 0.99855495909E+01
 0.94694956844E+01 0.99033050286E+01 0.10434581120E+02 0.11065286314E+02 0.11794524026E+02
 0.12618723229E+02 0.13531851583E+02 0.14525476236E+02 0.15588532827E+02 0.16706800678E+02
 0.17862180375E+02 0.19016362037E+02 0.20100611641E+02 0.21060453667E+02 0.21864139283E+02
 0.22501521782E+02 0.22979736358E+02 0.23317016619E+02 0.23535999098E+02 0.23657632062E+02
 0.23696450983E+02 0.23657632412E+02 0.23535999624E+02 0.23317017057E+02 0.22979736473E+02
 0.22501521484E+02 0.21864138661E+02 0.21060452957E+02 0.20100611113E+02 0.19016361866E+02
 0.17862180543E+02 0.16706800985E+02 0.15588532945E+02 0.14525475856E+02 0.13531850530E+02
 0.12618721554E+02 0.11794521976E+02 0.11065284278E+02 0.10434579485E+02 0.99033040537E+01
 0.94694954539E+01 0.91283079341E+01 0.88721912759E+01 0.86912462263E+01 0.85737114501E+01
 0.85065611896E+01 0.84762276420E+01 0.84694711752E+01 0.84743860873E+01 0.84814592953E+01
 0.84845288223E+01 0.84814592802E+01 0.84743860084E+01 0.84694709577E+01 0.84762272061E+01
 0.85065604908E+01 0.85737105278E+01 0.86912452167E+01 0.88721904160E+01 0.91283075059E+01
 0.88919262914E+01 0.94152399147E+01 0.10033927932E+02 0.10750008118E+02 0.11562666756E+02
 0.12468232456E+02 0.13460210759E+02 0.14529212751E+02 0.15662665973E+02 0.16844337603E+02
 0.18051029402E+02 0.19225813897E+02 0.20303567320E+02 0.21239741067E+02 0.22011719296E+02
 0.22616179056E+02 0.23063970756E+02 0.23373832295E+02 0.23566142383E+02 0.23657632290E+02
 0.23657632412E+02 0.23566142693E+02 0.23373832655E+02 0.23063970989E+02 0.22616179032E+02
 0.22011718974E+02 0.21239740526E+02 0.20303566726E+02 0.19225813450E+02 0.18051029234E+02
 0.16844337731E+02 0.15662666260E+02 0.14529212939E+02 0.13460210559E+02 0.12468231627E+02
 0.11562665229E+02 0.10750005998E+02 0.10033925502E+02 0.94152375509E+01 0.88919243297E+01
 0.84593479424E+01 0.81106712114E+01 0.78374154463E+01 0.76300416858E+01 0.74784699928E+01
 0.73725242906E+01 0.73023604238E+01 0.72589571765E+01 0.72347064720E+01 0.72240527182E+01
 0.72240529704E+01 0.72347071424E+01 0.72589580525E+01 0.73023612490E+01 0.73725248866E+01
 0.74784703309E+01 0.76300419048E+01 0.78374158135E+01 0.81106719982E+01 0.84593493165E+01
 0.84313673164E+01 0.90262960558E+01 0.97165396626E+01 0.10503762605E+02 0.11386606993E+02
 0.12360598912E+02 0.13418131607E+02 0.14548361303E+02 0.15736924661E+02 0.16965531962E+02
 0.18201193567E+02 0.19378186092E+02 0.20439761911E+02 0.21349917640E+02 0.22092772948E+02
 0.22668983100E+02 0.23090349342E+02 0.23373832494E+02 0.23535999532E+02 0.23588640439E+02
 0.23535999624E+02 0.23373832655E+02 0.23090349524E+02 0.22668983234E+02 0.22092772962E+02
 0.21349917488E+02 0.20439761609E+02 0.19378185731E+02 0.18201193298E+02 0.16965531932E+02
 0.15736924955E+02 0.14548361860E+02 0.13418132220E+02 0.12360599277E+02 0.11386606791E+02
 0.10503761655E+02 0.97165379802E+01 0.90262938587E+01 0.84313649643E+01 0.79273717382E+01
 0.75077753726E+01 0.71646023167E+01 0.68891866639E+01 0.66727856736E+01 0.65069974147E+01
 0.63840103230E+01 0.62967877719E+01 0.62392967576E+01 0.62068268037E+01 0.61963525381E+01
 0.62068276190E+01 0.62392981613E+01 0.62967894044E+01 0.63840118474E+01 0.65069986539E+01
 0.66727866721E+01 0.68891876471E+01 0.71646035570E+01 0.75077770618E+01 0.79273738717E+01
 0.80624400769E+01 0.87169034013E+01 0.94673034706E+01 0.10314515236E+02 0.11256175734E+02
 0.12286605511E+02 0.13396795275E+02 0.14574296857E+02 0.15802951903E+02 0.17062110750E+02
 0.18307937018E+02 0.19475911753E+02 0.20517038081E+02 0.21401792469E+02 0.22118433978E+02
 0.22668983113E+02 0.23063970974E+02 0.23317017093E+02 0.23440096481E+02 0.23440096459E+02
 0.23317017057E+02 0.23063970989E+02 0.22668983234E+02 0.22118434196E+02 0.21401792709E+02
 0.20517038234E+02 0.19475911756E+02 0.18307936911E+02 0.17062110682E+02 0.15802952084E+02
 0.14574297450E+02 0.13396796293E+02 0.12286606767E+02 0.11256176897E+02 0.10314515929E+02
 0.94673034322E+01 0.87169026049E+01 0.80624387229E+01 0.75000990325E+01 0.70237181479E+01
 0.66255868052E+01 0.62973252603E+01 0.60306388888E+01 0.58178290119E+01 0.56520378542E+01
 0.55273108577E+01 0.54386113764E+01 0.53818982839E+01 0.53542955983E+01 0.53542960520E+01
 0.53818995090E+01 0.54386130196E+01 0.55273125130E+01 0.56520392212E+01 0.58178300183E+01
 0.60306396863E+01 0.62973261139E+01 0.66255879395E+01 0.70237195984E+01 0.75001006041E+01
 0.77691824074E+01 0.84741525156E+01 0.92754306284E+01 0.10172812436E+02 0.11162702793E+02
 0.12238075718E+02 0.13388464521E+02 0.14599835648E+02 0.15854314209E+02 0.17128203302E+02
 0.18371041598E+02 0.19523266913E+02 0.20541957896E+02 0.21401792281E+02 0.22092772755E+02
 0.22616179063E+02 0.22979736637E+02 0.23192911445E+02 0.23263056689E+02 0.23192911306E+02
 0.22979736473E+02 0.22616179032E+02 0.22092772962E+02 0.21401792709E+02 0.20541958407E+02
 0.19523267321E+02 0.18371041789E+02 0.17128203305E+02 0.15854314224E+02 0.14599835959E+02
 0.13388465355E+02 0.12238077136E+02 0.11162704608E+02 0.10172814303E+02 0.92754321548E+01
 0.84741534237E+01 0.77691826523E+01 0.71575740429E+01 0.66337707619E+01 0.61904160310E+01
 0.58192931277E+01 0.55121979047E+01 0.52615759331E+01 0.50608508109E+01 0.49044865694E+01
 0.47879120651E+01 0.47074501105E+01 0.46603376198E+01 0.46448330449E+01 0.46603382512E+01
 0.47074511434E+01 0.47879131458E+01 0.49044873811E+01 0.50608512139E+01 0.52615760020E+01
 0.55121978608E+01 0.58192932050E+01 0.61904163171E+01 0.66337711515E+01 0.71575742686E+01
 0.75403257714E+01 0.82881852745E+01 0.91320212669E+01 0.10070435078E+02 0.11098552697E+02
 0.12208005425E+02 0.13386898190E+02 0.14619647970E+02 0.15886700724E+02 0.17161504900E+02
 0.18391839724E+02 0.19523266704E+02 0.20517037650E+02 0.21349917148E+02 0.22011718960E+02
 0.22501521707E+02 0.22823432812E+02 0.22982685035E+02 0.22982684921E+02 0.22823432547E+02
 0.22501521484E+02 0.22011718974E+02 0.21349917488E+02 0.20517038234E+02 0.19523267321E+02
 0.18391840143E+02 0.17161504995E+02 0.15886700565E+02 0.14619647816E+02 0.13386898376E+02
 0.12208006214E+02 0.11098554163E+02 0.10070437049E+02 0.91320234059E+01 0.82881872245E+01
 0.75403272888E+01 0.68865437469E+01 0.63220979552E+01 0.58401689786E+01 0.54327961839E+01
 0.50918192906E+01 0.48096264074E+01 0.45795936308E+01 0.43962133121E+01 0.42550120908E+01
 0.41524080256E+01 0.40856301093E+01 0.40527440286E+01 0.40527441415E+01 0.40856303671E+01
 0.41524082347E+01 0.42550120395E+01 0.43962128889E+01 0.45795928757E+01 0.48096254906E+01
 0.50918184127E+01 0.54327954552E+01 0.58401683581E+01 0.63220972489E+01 0.68865427101E+01
 0.73667389295E+01 0.81505997352E+01 0.90293115975E+01 0.10000283193E+02 0.11057394062E+02
 0.12190962608E+02 0.13387668826E+02 0.14630353348E+02 0.15897742993E+02 0.17161504872E+02
 0.18371041351E+02 0.19475911236E+02 0.20439761250E+02 0.21239740475E+02 0.21864138894E+02
 0.22309060651E+02 0.22574891983E+02 0.22663243041E+02 0.22574891734E+02 0.22309060302E+02
 0.21864138661E+02 0.21239740526E+02 0.20439761609E+02 0.19475911756E+02 0.18371041789E+02
 0.17161504995E+02 0.15897742709E+02 0.14630352768E+02 0.13387668226E+02 0.12190962337E+02
 0.11057394379E+02 0.10000284187E+02 0.90293131436E+01 0.81506015525E+01 0.73667407146E+01
 0.66769318876E+01 0.60773707662E+01 0.55619258790E+01 0.51230392425E+01 0.47526843014E+01
 0.44431890242E+01 0.41877794419E+01 0.39807989844E+01 0.38176689359E+01 0.36947276019E+01
 0.36090899405E+01 0.35586093377E+01 0.35419367753E+01 0.35586091069E+01 0.36090894466E+01
 0.36947268147E+01 0.38176678737E+01 0.39807977310E+01 0.41877781352E+01 0.44431877972E+01
 0.47526832140E+01 0.51230382514E+01 0.55619248373E+01 0.60773695133E+01 0.66769303404E+01
 0.72405720445E+01 0.80541840110E+01 0.89608168978E+01 0.99567253281E+01 0.11034567315E+02
 0.12183330860E+02 0.13388203918E+02 0.14630353531E+02 0.15886700888E+02 0.17128203247E+02