    2    2    1    1
  0.2258839E+02  0.3997699E-09  0.3997699E-09  0.3997699E-09  0.5000000E-15
  1.000000000000000E-004
  CAR 
 Name                                    
     18     16     16
 
  0.0000000E+00  0.0000000E+00  0.0000000E+00  0.4629630E-02
    1      -11.988384   1.000000
    2      -11.988384   1.000000
    3      -11.988384   1.000000
    4      -11.910347   1.000000
    5      -11.910347   1.000000
    6       -9.823640   1.000000
    7        2.942111   1.000000
    8        2.942111   1.000000
    9        2.942111   1.000000
   10        3.270565   0.000000
   11        6.607181   0.000000
   12        6.607181   0.000000
   13        6.607181   0.000000
   14       10.277925   0.000000
   15       13.096591   0.000000
   16       13.096591   0.000000
 
  0.1666667E+00  0.0000000E+00  0.0000000E+00  0.3703704E-01
    1      -12.009856   1.000000
    2      -11.982533   1.000000
    3      -11.982533   1.000000
    4      -11.910534   1.000000
    5      -11.910534   1.000000
    6       -9.503925   1.000000
    7        0.169389   1.000000
    8        2.557678   1.000000
    9        2.557678   1.000000
   10        4.443658   0.000000
   11        7.155438   0.000000
   12        7.155438   0.000000
   13        7.512244   0.000000
   14       11.665330   0.000000
   15       11.959344   0.000000
   16       11.959344   0.000000
 
  0.3333333E+00  0.0000000E+00  0.0000000E+00  0.3703704E-01
    1      -12.047837   1.000000
    2      -11.972848   1.000000
    3      -11.972848   1.000000
    4      -11.908788   1.000000
    5      -11.908788   1.000000
    6       -8.676611   1.000000
    7       -2.493658   1.000000
    8        2.009094   1.000000
    9        2.009095   1.000000
   10        4.018608   0.000000
   11        7.574668   0.000000
   12        7.574668   0.000000
   13       10.032785   0.000000
   14       11.498062   0.000000
   15       12.568850   0.000000
   16       12.568850   0.000000
 
  0.5000000E+00  0.0000000E+00  0.0000000E+00  0.1851852E-01
    1      -12.065053   1.000000
    2      -11.969301   1.000000
    3      -11.969301   1.000000
    4      -11.906586   1.000000
    5      -11.906586   1.000000
    6       -8.057903   1.000000
    7       -3.755275   1.000000
    8        1.793643   1.000000
    9        1.793643   1.000000
   10        3.799923   0.000000
   11        7.515357   0.000000
   12        7.515357   0.000000
   13       10.497386   0.000000
   14       13.143229   0.000000
   15       14.749493   0.000000
   16       14.749493   0.000000
 
  0.1666667E+00  0.1666667E+00  0.0000000E+00  0.2777778E-01
    1      -12.021625   1.000000
    2      -11.976695   1.000000
    3      -11.976695   1.000000
    4      -11.915600   1.000000
    5      -11.907191   1.000000
    6       -9.397193   1.000000
    7        0.163717   1.000000
    8        1.919791   1.000000
    9        1.919792   1.000000
   10        5.364591   0.000000
   11        5.927718   0.000000
   12        8.154623   0.000000
   13        8.154623   0.000000
   14       10.331021   0.000000
   15       12.384844   0.000000
   16       13.544233   0.000000
 
  0.3333333E+00  0.1666667E+00  0.0000000E+00  0.1111111E+00
    1      -12.051106   1.000000
    2      -11.968224   1.000000
    3      -11.965801   1.000000
    4      -11.918419   1.000000
    5      -11.904745   1.000000
    6       -8.726585   1.000000
    7       -1.856306   1.000000
    8        1.052970   1.000000
    9        1.361160   1.000000
   10        5.337765   0.000000
   11        6.615444   0.000000
   12        8.494121   0.000000
   13        8.948754   0.000000
   14       11.641022   0.000000
   15       13.545759   0.000000
   16       13.851544   0.000000
 
  0.5000000E+00  0.1666667E+00  0.0000000E+00  0.1111111E+00
    1      -12.069318   1.000000
    2      -11.965366   1.000000
    3      -11.961259   1.000000
    4      -11.914126   1.000000
    5      -11.905211   1.000000
    6       -7.926867   1.000000
    7       -3.506030   1.000000
    8        0.268577   1.000000
    9        1.291980   1.000000
   10        5.157105   0.000000
   11        7.311211   0.000000
   12        8.654623   0.000000
   13        9.869678   0.000000
   14       12.642002   0.000000
   15       14.345256   0.000000
   16       14.779005   0.000000
 
 -0.3333333E+00  0.1666667E+00  0.0000000E+00  0.1111111E+00
    1      -12.062735   1.000000
    2      -11.966674   1.000000
    3      -11.965074   1.000000
    4      -11.910716   1.000000
    5      -11.909193   1.000000
    6       -8.153678   1.000000
    7       -3.088486   1.000000
    8        0.071033   1.000000
    9        1.732927   1.000000
   10        5.298240   0.000000
   11        7.572572   0.000000
   12        8.194332   0.000000
   13        9.947224   0.000000
   14       11.953689   0.000000
   15       12.791471   0.000000
   16       14.577570   0.000000
 
 -0.1666667E+00  0.1666667E+00  0.0000000E+00  0.5555556E-01
    1      -12.035709   1.000000
    2      -11.975751   1.000000
    3      -11.972590   1.000000
    4      -11.913305   1.000000
    5      -11.908393   1.000000
    6       -9.007363   1.000000
    7       -1.236403   1.000000
    8        0.821274   1.000000
    9        2.411148   1.000000
   10        5.414528   0.000000
   11        7.325772   0.000000
   12        7.455122   0.000000
   13        8.490310   0.000000
   14       10.927222   0.000000
   15       12.687965   0.000000
   16       13.404402   0.000000
 
  0.3333333E+00  0.3333333E+00  0.0000000E+00  0.2777778E-01
    1      -12.074335   1.000000
    2      -11.952493   1.000000
    3      -11.952493   1.000000
    4      -11.928602   1.000000
    5      -11.900871   1.000000
    6       -8.265170   1.000000
    7       -2.475032   1.000000
    8        0.701780   1.000000
    9        0.701781   1.000000
   10        4.398934   0.000000
   11        5.468621   0.000000
   12       10.878813   0.000000
   13       10.878813   0.000000
   14       11.436675   0.000000
   15       14.862711   0.000000
   16       15.806316   0.000000
 
  0.5000000E+00  0.3333333E+00  0.0000000E+00  0.1111111E+00
    1      -12.085900   1.000000
    2      -11.950535   1.000000
    3      -11.946399   1.000000
    4      -11.928032   1.000000
    5      -11.900977   1.000000
    6       -7.572112   1.000000
    7       -3.525955   1.000000
    8       -0.361964   1.000000
    9        0.548386   1.000000
   10        4.677099   0.000000
   11        6.173438   0.000000
   12       10.457668   0.000000
   13       11.164299   0.000000
   14       13.423505   0.000000
   15       15.184864   0.000000
   16       15.687534   0.000000
 
 -0.3333333E+00  0.3333333E+00  0.0000000E+00  0.5555556E-01
    1      -12.078441   1.000000
    2      -11.958868   1.000000
    3      -11.951548   1.000000
    4      -11.918587   1.000000
    5      -11.907163   1.000000
    6       -7.507410   1.000000
    7       -3.575192   1.000000
    8       -1.066517   1.000000
    9        0.973763   1.000000
   10        5.067214   0.000000
   11        8.717132   0.000000
   12       10.039667   0.000000
   13       10.328427   0.000000
   14       10.559220   0.000000
   15       12.565669   0.000000
   16       17.034532   0.000000
 
  0.5000000E+00  0.5000000E+00  0.0000000E+00  0.1388889E-01
    1      -12.096534   1.000000
    2      -11.939975   1.000000
    3      -11.939975   1.000000
    4      -11.935769   1.000000
    5      -11.897714   1.000000
    6       -7.315989   1.000000
    7       -3.938038   1.000000
    8        0.248659   1.000000
    9        0.248660   1.000000
   10        4.276621   0.000000
   11        4.488086   0.000000
   12       12.978951   0.000000
   13       12.978951   0.000000
   14       13.730838   0.000000
   15       16.069708   0.000000
   16       16.247687   0.000000
 
  0.5000000E+00  0.3333333E+00  0.1666667E+00  0.1111111E+00
    1      -12.070880   1.000000
    2      -11.961803   1.000000
    3      -11.954879   1.000000
    4      -11.920697   1.000000
    5      -11.904460   1.000000
    6       -8.012962   1.000000
    7       -2.919995   1.000000
    8       -0.302133   1.000000
    9        0.872425   1.000000
   10        6.287753   0.000000
   11        6.686811   0.000000
   12        7.933431   0.000000
   13       10.677228   0.000000
   14       12.243628   0.000000
   15       13.945141   0.000000
   16       15.930669   0.000000
 
 -0.3333333E+00  0.3333333E+00  0.1666667E+00  0.1111111E+00
    1      -12.078126   1.000000
    2      -11.961310   1.000000
    3      -11.949998   1.000000
    4      -11.918343   1.000000
    5      -11.906838   1.000000
    6       -7.506362   1.000000
    7       -3.612032   1.000000
    8       -0.754679   1.000000
    9        0.461762   1.000000
   10        6.454204   0.000000
   11        7.192352   0.000000
   12        9.051951   0.000000
   13       10.229052   0.000000
   14       11.476801   0.000000
   15       14.993620   0.000000
   16       15.604482   0.000000
 
 -0.3333333E+00  0.5000000E+00  0.1666667E+00  0.5555556E-01
    1      -12.087033   1.000000
    2      -11.953317   1.000000
    3      -11.943935   1.000000
    4      -11.925216   1.000000
    5      -11.903347   1.000000
    6       -7.272478   1.000000
    7       -3.803003   1.000000
    8       -0.432432   1.000000
    9       -0.291822   1.000000
   10        6.106983   0.000000
   11        6.301176   0.000000
   12        9.945698   0.000000
   13       10.241960   0.000000
   14       13.840338   0.000000
   15       15.086334   0.000000
   16       16.156547   0.000000
