       N       E                     dE             d eps       ncg     rms          rms(c)
DAV:   1     0.891286455722E+02    0.89129E+02   -0.87750E+03   520   0.182E+03
DAV:   2    -0.104966990305E+01   -0.90178E+02   -0.85957E+02   568   0.357E+02
DAV:   3    -0.965844377662E+01   -0.86088E+01   -0.85759E+01   672   0.789E+01
DAV:   4    -0.981156641897E+01   -0.15312E+00   -0.15311E+00   600   0.115E+01
DAV:   5    -0.981316057145E+01   -0.15942E-02   -0.15941E-02   648   0.128E+00    0.249E+00
DAV:   6    -0.962275976100E+01    0.19040E+00   -0.21547E-01   808   0.975E+00    0.132E+00
DAV:   7    -0.957830569701E+01    0.44454E-01   -0.61175E-02   728   0.193E+00    0.430E-01
DAV:   8    -0.957457226532E+01    0.37334E-02   -0.86561E-03   680   0.108E+00    0.740E-02
DAV:   9    -0.957454763527E+01    0.24630E-04   -0.73156E-04   640   0.449E-01    0.258E-02
DAV:  10    -0.957454807688E+01   -0.44161E-06   -0.35418E-05   672   0.721E-02    0.116E-02
DAV:  11    -0.957455320906E+01   -0.51322E-05   -0.29205E-06   568   0.129E-02    0.191E-03
DAV:  12    -0.957455312865E+01    0.80404E-07   -0.93548E-08   456   0.614E-03
   1 F= -.95745531E+01 E0= -.95745531E+01  d E =-.331614E-37
