PROCAR new format
# of k-points:   16         # of bands:  16         # of ions:   2

 k-point    1 :    0.00000000 0.00000000 0.00000000     weight = 0.00462963

band   1 # energy  -11.98838361 # occ.  2.00000000
 
ion      s      p      d    tot
  1  0.000  0.000  0.983  0.983
  2  0.000  0.004  0.000  0.004
tot  0.000  0.004  0.984  0.987
 
band   2 # energy  -11.98838351 # occ.  2.00000000
 
ion      s      p      d    tot
  1  0.000  0.000  0.983  0.983
  2  0.000  0.004  0.000  0.004
tot  0.000  0.004  0.984  0.987
 
band   3 # energy  -11.98838351 # occ.  2.00000000
 
ion      s      p      d    tot
  1  0.000  0.000  0.983  0.983
  2  0.000  0.004  0.000  0.004
tot  0.000  0.004  0.984  0.987
 
band   4 # energy  -11.91034739 # occ.  2.00000000
 
ion      s      p      d    tot
  1  0.000  0.000  0.990  0.990
  2  0.000  0.000  0.000  0.000
tot  0.000  0.000  0.990  0.990
 
band   5 # energy  -11.91034739 # occ.  2.00000000
 
ion      s      p      d    tot
  1  0.000  0.000  0.990  0.990
  2  0.000  0.000  0.000  0.000
tot  0.000  0.000  0.990  0.990
 
band   6 # energy   -9.82363979 # occ.  2.00000000
 
ion      s      p      d    tot
  1  0.191  0.000  0.000  0.191
  2  0.423  0.000  0.000  0.423
tot  0.614  0.000  0.000  0.614
 
band   7 # energy    2.94211053 # occ.  2.00000000
 
ion      s      p      d    tot
  1  0.000  0.104  0.062  0.166
  2  0.000  0.462  0.005  0.467
tot  0.000  0.565  0.067  0.633
 
band   8 # energy    2.94211053 # occ.  2.00000000
 
ion      s      p      d    tot
  1  0.000  0.104  0.062  0.166
  2  0.000  0.462  0.005  0.467
tot  0.000  0.565  0.067  0.633
 
band   9 # energy    2.94211077 # occ.  2.00000000
 
ion      s      p      d    tot
  1  0.000  0.104  0.062  0.166
  2  0.000  0.462  0.005  0.467
tot  0.000  0.565  0.067  0.633
 
band  10 # energy    3.27056542 # occ.  0.00000000
 
ion      s      p      d    tot
  1  0.405  0.000  0.000  0.405
  2  0.361  0.000  0.000  0.361
tot  0.766  0.000  0.000  0.766
 
band  11 # energy    6.60718114 # occ.  0.00000000
 
ion      s      p      d    tot
  1  0.000  0.389  0.009  0.399
  2  0.000  0.040  0.067  0.107
tot  0.000  0.429  0.077  0.506
 
band  12 # energy    6.60718114 # occ.  0.00000000
 
ion      s      p      d    tot
  1  0.000  0.389  0.009  0.399
  2  0.000  0.040  0.067  0.107
tot  0.000  0.429  0.077  0.506
 
band  13 # energy    6.60718122 # occ.  0.00000000
 
ion      s      p      d    tot
  1  0.000  0.389  0.009  0.399
  2  0.000  0.040  0.067  0.107
tot  0.000  0.429  0.077  0.506
 
band  14 # energy   10.27792500 # occ.  0.00000000
 
ion      s      p      d    tot
  1  0.227  0.000  0.000  0.227
  2  0.022  0.000  0.000  0.022
tot  0.249  0.000  0.000  0.249
 
band  15 # energy   13.09659086 # occ.  0.00000000
 
ion      s      p      d    tot
  1  0.000  0.000  0.187  0.187
  2  0.000  0.000  0.192  0.192
tot  0.000  0.000  0.379  0.379
 
band  16 # energy   13.09659086 # occ.  0.00000000
 
ion      s      p      d    tot
  1  0.000  0.000  0.187  0.187
  2  0.000  0.000  0.192  0.192
tot  0.000  0.000  0.379  0.379
 

 k-point    2 :    0.16666667 0.00000000 0.00000000     weight = 0.03703704

band   1 # energy  -12.00985551 # occ.  2.00000000
 
ion      s      p      d    tot
  1  0.001  0.000  0.972  0.974
  2  0.008  0.003  0.000  0.010
tot  0.008  0.003  0.973  0.984
 
band   2 # energy  -11.98253324 # occ.  2.00000000
 
ion      s      p      d    tot
  1  0.000  0.000  0.984  0.984
  2  0.000  0.003  0.000  0.004
tot  0.000  0.004  0.984  0.988
 
band   3 # energy  -11.98253319 # occ.  2.00000000
 
ion      s      p      d    tot
  1  0.000  0.000  0.984  0.984
  2  0.000  0.003  0.000  0.004
tot  0.000  0.004  0.984  0.988
 
band   4 # energy  -11.91053386 # occ.  2.00000000
 
ion      s      p      d    tot
  1  0.000  0.000  0.990  0.990
  2  0.000  0.000  0.000  0.000
tot  0.000  0.000  0.990  0.990
 
band   5 # energy  -11.91053383 # occ.  2.00000000
 
ion      s      p      d    tot
  1  0.000  0.000  0.990  0.990
  2  0.000  0.000  0.000  0.000
tot  0.000  0.000  0.990  0.990
 
band   6 # energy   -9.50392540 # occ.  2.00000000
 
ion      s      p      d    tot
  1  0.178  0.006  0.011  0.195
  2  0.426  0.003  0.000  0.429
tot  0.604  0.009  0.012  0.624
 
band   7 # energy    0.16938908 # occ.  2.00000000
 
ion      s      p      d    tot
  1  0.186  0.080  0.029  0.295
  2  0.136  0.208  0.005  0.349
tot  0.322  0.288  0.034  0.644
 
band   8 # energy    2.55767775 # occ.  2.00000000
 
ion      s      p      d    tot
  1  0.000  0.138  0.049  0.187
  2  0.000  0.423  0.006  0.429
tot  0.000  0.562  0.055  0.616
 
band   9 # energy    2.55767795 # occ.  2.00000000
 
ion      s      p      d    tot
  1  0.000  0.138  0.049  0.187
  2  0.000  0.423  0.006  0.429
tot  0.000  0.562  0.055  0.616
 
band  10 # energy    4.44365786 # occ.  0.00000000
 
ion      s      p      d    tot
  1  0.240  0.099  0.007  0.346
  2  0.166  0.104  0.015  0.285
tot  0.407  0.203  0.022  0.632
 
band  11 # energy    7.15543840 # occ.  0.00000000
 
ion      s      p      d    tot
  1  0.000  0.354  0.021  0.375
  2  0.000  0.077  0.065  0.143
tot  0.000  0.431  0.086  0.518
 
band  12 # energy    7.15543848 # occ.  0.00000000
 
ion      s      p      d    tot
  1  0.000  0.354  0.021  0.375
  2  0.000  0.077  0.065  0.143
tot  0.000  0.431  0.086  0.518
 
band  13 # energy    7.51224438 # occ.  0.00000000
 
ion      s      p      d    tot
  1  0.060  0.184  0.028  0.273
  2  0.050  0.180  0.038  0.268
tot  0.110  0.364  0.067  0.541
 
band  14 # energy   11.66532970 # occ.  0.00000000
 
ion      s      p      d    tot
  1  0.126  0.109  0.003  0.239
  2  0.010  0.023  0.010  0.044
tot  0.137  0.132  0.014  0.283
 
band  15 # energy   11.95934381 # occ.  0.00000000
 
ion      s      p      d    tot
  1  0.000  0.007  0.139  0.147
  2  0.000  0.002  0.130  0.132
tot  0.000  0.009  0.269  0.279
 
band  16 # energy   11.95934382 # occ.  0.00000000
 
ion      s      p      d    tot
  1  0.000  0.007  0.139  0.147
  2  0.000  0.002  0.130  0.132
tot  0.000  0.009  0.269  0.279
 

 k-point    3 :    0.33333333 0.00000000 0.00000000     weight = 0.03703704

band   1 # energy  -12.04783679 # occ.  2.00000000
 
ion      s      p      d    tot
  1  0.001  0.001  0.958  0.960
  2  0.018  0.001  0.000  0.019
tot  0.020  0.001  0.958  0.979
 
band   2 # energy  -11.97284812 # occ.  2.00000000
 
ion      s      p      d    tot
  1  0.000  0.000  0.985  0.985
  2  0.000  0.003  0.000  0.003
tot  0.000  0.003  0.985  0.988
 
band   3 # energy  -11.97284809 # occ.  2.00000000
 
ion      s      p      d    tot
  1  0.000  0.000  0.985  0.985
  2  0.000  0.003  0.000  0.003
tot  0.000  0.003  0.985  0.988
 
band   4 # energy  -11.90878794 # occ.  2.00000000
 
ion      s      p      d    tot
  1  0.000  0.000  0.990  0.990
  2  0.000  0.000  0.000  0.000
tot  0.000  0.000  0.990  0.990
 
band   5 # energy  -11.90878783 # occ.  2.00000000
 
ion      s      p      d    tot
  1  0.000  0.000  0.990  0.990
  2  0.000  0.000  0.000  0.000
tot  0.000  0.000  0.990  0.990
 
band   6 # energy   -8.67661108 # occ.  2.00000000
 
ion      s      p      d    tot
  1  0.139  0.021  0.031  0.191
  2  0.455  0.006  0.000  0.462
tot  0.595  0.027  0.031  0.653
 
band   7 # energy   -2.49365817 # occ.  2.00000000
 
ion      s      p      d    tot
  1  0.232  0.077  0.013  0.323
  2  0.091  0.170  0.003  0.265
tot  0.324  0.247  0.016  0.587
 
band   8 # energy    2.00909446 # occ.  2.00000000
 
ion      s      p      d    tot
  1  0.000  0.173  0.033  0.206
  2  0.000  0.392  0.005  0.397
tot  0.000  0.565  0.038  0.603
 
band   9 # energy    2.00909466 # occ.  2.00000000
 
ion      s      p      d    tot
  1  0.000  0.173  0.033  0.206
  2  0.000  0.392  0.005  0.397
tot  0.000  0.565  0.038  0.603
 
band  10 # energy    4.01860831 # occ.  0.00000000
 
ion      s      p      d    tot
  1  0.263  0.076  0.014  0.353
  2  0.148  0.052  0.023  0.223
tot  0.411  0.128  0.037  0.576
 
band  11 # energy    7.57466822 # occ.  0.00000000
 
ion      s      p      d    tot
  1  0.000  0.271  0.044  0.315
  2  0.000  0.080  0.068  0.149
tot  0.000  0.351  0.112  0.464
 
band  12 # energy    7.57466828 # occ.  0.00000000
 
ion      s      p      d    tot
  1  0.000  0.271  0.044  0.315
  2  0.000  0.080  0.068  0.149
tot  0.000  0.351  0.112  0.464
 
band  13 # energy   10.03278531 # occ.  0.00000000
 
ion      s      p      d    tot
  1  0.032  0.107  0.029  0.167
  2  0.035  0.273  0.014  0.323
tot  0.067  0.380  0.043  0.490
 
band  14 # energy   11.49806179 # occ.  0.00000000
 
ion      s      p      d    tot
  1  0.092  0.041  0.015  0.148
  2  0.028  0.011  0.018  0.056
tot  0.120  0.052  0.033  0.204
 
band  15 # energy   12.56885041 # occ.  0.00000000
 
ion      s      p      d    tot
  1  0.000  0.057  0.120  0.177
  2  0.000  0.031  0.125  0.155
tot  0.000  0.088  0.244  0.332
 
band  16 # energy   12.56885045 # occ.  0.00000000
 
ion      s      p      d    tot
  1  0.000  0.057  0.120  0.177
  2  0.000  0.031  0.125  0.155
tot  0.000  0.088  0.244  0.332
 

 k-point    4 :    0.50000000 0.00000000 0.00000000     weight = 0.01851852

band   1 # energy  -12.06505338 # occ.  2.00000000
 
ion      s      p      d    tot
  1  0.001  0.001  0.952  0.955
  2  0.023  0.000  0.000  0.023
tot  0.024  0.001  0.953  0.977
 
band   2 # energy  -11.96930062 # occ.  2.00000000
 
ion      s      p      d    tot
  1  0.000  0.000  0.985  0.985
  2  0.000  0.003  0.000  0.003
tot  0.000  0.003  0.986  0.988
 
band   3 # energy  -11.96930056 # occ.  2.00000000
 
ion      s      p      d    tot
  1  0.000  0.000  0.985  0.985
  2  0.000  0.003  0.000  0.003
tot  0.000  0.003  0.986  0.988
 
band   4 # energy  -11.90658593 # occ.  2.00000000
 
ion      s      p      d    tot
  1  0.000  0.000  0.990  0.990
  2  0.000  0.000  0.000  0.000
tot  0.000  0.000  0.990  0.990
 
band   5 # energy  -11.90658578 # occ.  2.00000000
 
ion      s      p      d    tot
  1  0.000  0.000  0.990  0.990
  2  0.000  0.000  0.000  0.000
tot  0.000  0.000  0.990  0.990
 
band   6 # energy   -8.05790280 # occ.  2.00000000
 
ion      s      p      d    tot
  1  0.097  0.032  0.044  0.173
  2  0.509  0.002  0.001  0.511
tot  0.605  0.034  0.045  0.685
 
band   7 # energy   -3.75527541 # occ.  2.00000000
 
ion      s      p      d    tot
  1  0.279  0.068  0.000  0.347
  2  0.033  0.164  0.002  0.198
tot  0.311  0.232  0.002  0.545
 
band   8 # energy    1.79364284 # occ.  2.00000000
 
ion      s      p      d    tot
  1  0.000  0.184  0.028  0.211
  2  0.000  0.385  0.004  0.389
tot  0.000  0.568  0.032  0.600
 
band   9 # energy    1.79364303 # occ.  2.00000000
 
ion      s      p      d    tot
  1  0.000  0.184  0.028  0.211
  2  0.000  0.385  0.004  0.389
tot  0.000  0.568  0.032  0.600
 
band  10 # energy    3.79992307 # occ.  0.00000000
 
ion      s      p      d    tot
  1  0.276  0.058  0.018  0.352
  2  0.150  0.044  0.025  0.219
tot  0.426  0.102  0.043  0.571
 
band  11 # energy    7.51535688 # occ.  0.00000000
 
ion      s      p      d    tot
  1  0.000  0.229  0.055  0.284
  2  0.000  0.069  0.071  0.140
tot  0.000  0.297  0.126  0.424
 
band  12 # energy    7.51535693 # occ.  0.00000000
 
ion      s      p      d    tot
  1  0.000  0.229  0.055  0.284
  2  0.000  0.069  0.071  0.140
tot  0.000  0.297  0.126  0.424
 
band  13 # energy   10.49738560 # occ.  0.00000000
 
ion      s      p      d    tot
  1  0.006  0.047  0.032  0.085
  2  0.001  0.105  0.005  0.111
tot  0.007  0.152  0.037  0.196
 
band  14 # energy   13.14322853 # occ.  0.00000000
 
ion      s      p      d    tot
  1  0.102  0.002  0.008  0.112
  2  0.005  0.333  0.012  0.350
tot  0.107  0.334  0.020  0.461
 
band  15 # energy   14.74949289 # occ.  0.00000000
 
ion      s      p      d    tot
  1  0.000  0.149  0.043  0.192
  2  0.000  0.077  0.111  0.188
tot  0.000  0.226  0.155  0.381
 
band  16 # energy   14.74949297 # occ.  0.00000000
 
ion      s      p      d    tot
  1  0.000  0.149  0.043  0.192
  2  0.000  0.077  0.111  0.188
tot  0.000  0.226  0.155  0.381
 

 k-point    5 :    0.16666667 0.16666667 0.00000000     weight = 0.02777778

band   1 # energy  -12.02162488 # occ.  2.00000000
 
ion      s      p      d    tot
  1  0.001  0.000  0.970  0.971
  2  0.009  0.003  0.000  0.012
tot  0.010  0.003  0.970  0.983
 
band   2 # energy  -11.97669510 # occ.  2.00000000
 
ion      s      p      d    tot
  1  0.000  0.000  0.985  0.985
  2  0.000  0.003  0.000  0.004
tot  0.000  0.003  0.985  0.988
 
band   3 # energy  -11.97669504 # occ.  2.00000000
 
ion      s      p      d    tot
  1  0.000  0.000  0.985  0.985
  2  0.000  0.003  0.000  0.004
tot  0.000  0.003  0.985  0.988
 
band   4 # energy  -11.91560031 # occ.  2.00000000
 
ion      s      p      d    tot
  1  0.000  0.000  0.989  0.989
  2  0.000  0.000  0.000  0.000
tot  0.000  0.000  0.989  0.989
 
band   5 # energy  -11.90719082 # occ.  2.00000000
 
ion      s      p      d    tot
  1  0.000  0.000  0.990  0.990
  2  0.000  0.000  0.000  0.000
tot  0.000  0.000  0.990  0.990
 
band   6 # energy   -9.39719311 # occ.  2.00000000
 
ion      s      p      d    tot
  1  0.174  0.008  0.014  0.196
  2  0.427  0.004  0.000  0.431
tot  0.601  0.012  0.014  0.627
 
band   7 # energy    0.16371658 # occ.  2.00000000
 
ion      s      p      d    tot
  1  0.241  0.050  0.032  0.324
  2  0.173  0.189  0.005  0.367
tot  0.414  0.239  0.037  0.691
 
band   8 # energy    1.91979143 # occ.  2.00000000
 
ion      s      p      d    tot
  1  0.000  0.166  0.036  0.202
  2  0.000  0.372  0.007  0.379
tot  0.000  0.538  0.043  0.581
 
band   9 # energy    1.91979156 # occ.  2.00000000
 
ion      s      p      d    tot
  1  0.000  0.166  0.036  0.202
  2  0.000  0.372  0.007  0.379
tot  0.000  0.538  0.043  0.581
 
band  10 # energy    5.36459108 # occ.  0.00000000
 
ion      s      p      d    tot
  1  0.188  0.086  0.030  0.304
  2  0.005  0.166  0.036  0.207
tot  0.193  0.252  0.066  0.510
 
band  11 # energy    5.92771819 # occ.  0.00000000
 
ion      s      p      d    tot
  1  0.062  0.233  0.004  0.298
  2  0.155  0.121  0.018  0.295
tot  0.217  0.354  0.022  0.594
 
band  12 # energy    8.15462286 # occ.  0.00000000
 
ion      s      p      d    tot
  1  0.000  0.325  0.032  0.357
  2  0.000  0.136  0.067  0.202
tot  0.000  0.460  0.099  0.559
 
band  13 # energy    8.15462294 # occ.  0.00000000
 
ion      s      p      d    tot
  1  0.000  0.325  0.032  0.357
  2  0.000  0.136  0.067  0.202
tot  0.000  0.460  0.099  0.559
 
band  14 # energy   10.33102134 # occ.  0.00000000
 
ion      s      p      d    tot
  1  0.005  0.001  0.109  0.115
  2  0.022  0.016  0.084  0.122
tot  0.028  0.017  0.192  0.237
 
band  15 # energy   12.38484384 # occ.  0.00000000
 
ion      s      p      d    tot
  1  0.147  0.141  0.004  0.292
  2  0.006  0.022  0.017  0.045
tot  0.153  0.163  0.022  0.337
 
band  16 # energy   13.54423340 # occ.  0.00000000
 
ion      s      p      d    tot
  1  0.000  0.000  0.177  0.177
  2  0.000  0.000  0.196  0.196
tot  0.000  0.000  0.374  0.374
 

 k-point    6 :    0.33333333 0.16666667 0.00000000     weight = 0.11111111

band   1 # energy  -12.05110569 # occ.  2.00000000
 
ion      s      p      d    tot
  1  0.001  0.001  0.959  0.961
  2  0.018  0.001  0.000  0.019
tot  0.019  0.002  0.959  0.980
 
band   2 # energy  -11.96822408 # occ.  2.00000000
 
ion      s      p      d    tot
  1  0.000  0.000  0.985  0.986
  2  0.000  0.003  0.000  0.003
tot  0.000  0.003  0.986  0.989
 
band   3 # energy  -11.96580067 # occ.  2.00000000
 
ion      s      p      d    tot
  1  0.000  0.000  0.986  0.986
  2  0.000  0.003  0.000  0.003
tot  0.000  0.003  0.986  0.989
 
band   4 # energy  -11.91841894 # occ.  2.00000000
 
ion      s      p      d    tot
  1  0.000  0.000  0.988  0.988
  2  0.000  0.000  0.000  0.001
tot  0.000  0.000  0.989  0.989
 
band   5 # energy  -11.90474489 # occ.  2.00000000
 
ion      s      p      d    tot
  1  0.000  0.000  0.990  0.990
  2  0.000  0.000  0.000  0.000
tot  0.000  0.000  0.990  0.990
 
band   6 # energy   -8.72658477 # occ.  2.00000000
 
ion      s      p      d    tot
  1  0.142  0.021  0.028  0.191
  2  0.450  0.007  0.000  0.457
tot  0.591  0.028  0.028  0.648
 
band   7 # energy   -1.85630632 # occ.  2.00000000
 
ion      s      p      d    tot
  1  0.265  0.060  0.020  0.345
  2  0.125  0.168  0.004  0.297
tot  0.390  0.227  0.025  0.642
 
band   8 # energy    1.05297022 # occ.  2.00000000
 
ion      s      p      d    tot
  1  0.042  0.162  0.024  0.227
  2  0.018  0.301  0.007  0.325
tot  0.059  0.462  0.031  0.553
 
band   9 # energy    1.36116037 # occ.  2.00000000
 
ion      s      p      d    tot
  1  0.000  0.187  0.024  0.211
  2  0.000  0.350  0.005  0.355
tot  0.000  0.537  0.029  0.566
 
band  10 # energy    5.33776469 # occ.  0.00000000
 
ion      s      p      d    tot
  1  0.144  0.100  0.033  0.277
  2  0.044  0.148  0.033  0.225
tot  0.189  0.248  0.066  0.502
 
band  11 # energy    6.61544368 # occ.  0.00000000
 
ion      s      p      d    tot
  1  0.087  0.202  0.016  0.305
  2  0.077  0.136  0.029  0.242
tot  0.163  0.338  0.045  0.546
 
band  12 # energy    8.49412089 # occ.  0.00000000
 
ion      s      p      d    tot
  1  0.001  0.146  0.063  0.211
  2  0.010  0.089  0.066  0.165
tot  0.012  0.235  0.129  0.376
 
band  13 # energy    8.94875414 # occ.  0.00000000
 
ion      s      p      d    tot
  1  0.000  0.273  0.048  0.320
  2  0.000  0.142  0.070  0.212
tot  0.000  0.414  0.118  0.532
 
band  14 # energy   11.64102161 # occ.  0.00000000
 
ion      s      p      d    tot
  1  0.026  0.096  0.070  0.192
  2  0.035  0.179  0.055  0.269
tot  0.062  0.275  0.125  0.461
 
band  15 # energy   13.54575872 # occ.  0.00000000
 
ion      s      p      d    tot
  1  0.058  0.122  0.031  0.212
  2  0.002  0.022  0.045  0.070
tot  0.060  0.145  0.076  0.281
 
band  16 # energy   13.85154354 # occ.  0.00000000
 
ion      s      p      d    tot
  1  0.000  0.039  0.132  0.172
  2  0.000  0.021  0.158  0.179
tot  0.000  0.061  0.290  0.351
 

 k-point    7 :    0.50000000 0.16666667 0.00000000     weight = 0.11111111

band   1 # energy  -12.06931821 # occ.  2.00000000
 
ion      s      p      d    tot
  1  0.001  0.001  0.953  0.954
  2  0.023  0.000  0.000  0.023
tot  0.024  0.001  0.953  0.978
 
band   2 # energy  -11.96536624 # occ.  2.00000000
 
ion      s      p      d    tot
  1  0.000  0.000  0.986  0.986
  2  0.000  0.002  0.000  0.003
tot  0.000  0.002  0.986  0.989
 
band   3 # energy  -11.96125891 # occ.  2.00000000
 
ion      s      p      d    tot
  1  0.000  0.000  0.986  0.986
  2  0.000  0.002  0.000  0.003
tot  0.000  0.003  0.987  0.989
 
band   4 # energy  -11.91412605 # occ.  2.00000000
 
ion      s      p      d    tot
  1  0.000  0.000  0.989  0.989
  2  0.000  0.000  0.000  0.000
tot  0.000  0.000  0.989  0.990
 
band   5 # energy  -11.90521062 # occ.  2.00000000
 
ion      s      p      d    tot
  1  0.000  0.000  0.990  0.990
  2  0.000  0.000  0.000  0.000
tot  0.000  0.000  0.991  0.991
 
band   6 # energy   -7.92686747 # occ.  2.00000000
 
ion      s      p      d    tot
  1  0.085  0.037  0.044  0.166
  2  0.514  0.004  0.001  0.518
tot  0.599  0.041  0.045  0.685
 
band   7 # energy   -3.50603047 # occ.  2.00000000
 
ion      s      p      d    tot
  1  0.317  0.055  0.004  0.375
  2  0.045  0.158  0.003  0.207
tot  0.362  0.213  0.007  0.582
 
band   8 # energy    0.26857683 # occ.  2.00000000
 
ion      s      p      d    tot
  1  0.060  0.154  0.019  0.233
  2  0.027  0.267  0.006  0.299
tot  0.087  0.421  0.024  0.532
 
band   9 # energy    1.29198002 # occ.  2.00000000
 
ion      s      p      d    tot
  1  0.000  0.193  0.021  0.214
  2  0.000  0.354  0.004  0.358
tot  0.000  0.547  0.025  0.572
 
band  10 # energy    5.15710526 # occ.  0.00000000
 
ion      s      p      d    tot
  1  0.162  0.097  0.031  0.290
  2  0.076  0.126  0.030  0.232
tot  0.238  0.223  0.061  0.522
 
band  11 # energy    7.31121142 # occ.  0.00000000
 
ion      s      p      d    tot
  1  0.046  0.154  0.041  0.241
  2  0.026  0.129  0.048  0.203
tot  0.072  0.283  0.088  0.444
 
band  12 # energy    8.65462288 # occ.  0.00000000
 
ion      s      p      d    tot
  1  0.000  0.224  0.059  0.283
  2  0.000  0.108  0.073  0.181
tot  0.000  0.332  0.131  0.464
 
band  13 # energy    9.86967825 # occ.  0.00000000
 
ion      s      p      d    tot
  1  0.018  0.152  0.053  0.224
  2  0.018  0.151  0.050  0.218
tot  0.036  0.303  0.102  0.441
 
band  14 # energy   12.64200243 # occ.  0.00000000
 
ion      s      p      d    tot
  1  0.009  0.094  0.060  0.163
  2  0.002  0.127  0.037  0.166
tot  0.011  0.221  0.097  0.329
 
band  15 # energy   14.34525567 # occ.  0.00000000
 
ion      s      p      d    tot
  1  0.067  0.050  0.042  0.159
  2  0.018  0.140  0.024  0.182
tot  0.085  0.190  0.066  0.341
 
band  16 # energy   14.77900462 # occ.  0.00000000
 
ion      s      p      d    tot
  1  0.000  0.127  0.073  0.200
  2  0.000  0.064  0.131  0.194
tot  0.000  0.191  0.203  0.394
 

 k-point    8 :   -0.33333333 0.16666667 0.00000000     weight = 0.11111111

band   1 # energy  -12.06273505 # occ.  2.00000000
 
ion      s      p      d    tot
  1  0.001  0.001  0.954  0.956
  2  0.022  0.000  0.000  0.023
tot  0.023  0.001  0.954  0.978
 
band   2 # energy  -11.96667379 # occ.  2.00000000
 
ion      s      p      d    tot
  1  0.000  0.000  0.986  0.986
  2  0.000  0.002  0.000  0.003
tot  0.000  0.002  0.986  0.988
 
band   3 # energy  -11.96507380 # occ.  2.00000000
 
ion      s      p      d    tot
  1  0.000  0.000  0.986  0.986
  2  0.000  0.003  0.000  0.003
tot  0.000  0.003  0.986  0.989
 
band   4 # energy  -11.91071606 # occ.  2.00000000
 
ion      s      p      d    tot
  1  0.000  0.000  0.990  0.990
  2  0.000  0.000  0.000  0.000
tot  0.000  0.000  0.990  0.990
 
band   5 # energy  -11.90919324 # occ.  2.00000000
 
ion      s      p      d    tot
  1  0.000  0.000  0.990  0.990
  2  0.000  0.000  0.000  0.000
tot  0.000  0.000  0.990  0.990
 
band   6 # energy   -8.15367780 # occ.  2.00000000
 
ion      s      p      d    tot
  1  0.105  0.032  0.040  0.176
  2  0.490  0.006  0.001  0.496
tot  0.595  0.038  0.040  0.673
 
band   7 # energy   -3.08848555 # occ.  2.00000000
 
ion      s      p      d    tot
  1  0.298  0.059  0.008  0.365
  2  0.072  0.159  0.004  0.235
tot  0.370  0.217  0.012  0.600
 
band   8 # energy    0.07103312 # occ.  2.00000000
 
ion      s      p      d    tot
  1  0.050  0.160  0.017  0.226
  2  0.019  0.264  0.005  0.289
tot  0.069  0.424  0.022  0.515
 
band   9 # energy    1.73292721 # occ.  2.00000000
 
ion      s      p      d    tot
  1  0.000  0.184  0.028  0.212
  2  0.000  0.377  0.005  0.381
tot  0.000  0.561  0.032  0.593
 
band  10 # energy    5.29824031 # occ.  0.00000000
 
ion      s      p      d    tot
  1  0.186  0.105  0.024  0.315
  2  0.091  0.130  0.027  0.247
tot  0.276  0.235  0.051  0.562
 
band  11 # energy    7.57257218 # occ.  0.00000000
 
ion      s      p      d    tot
  1  0.024  0.148  0.048  0.221
  2  0.017  0.116  0.053  0.186
tot  0.041  0.264  0.101  0.406
 
band  12 # energy    8.19433171 # occ.  0.00000000
 
ion      s      p      d    tot
  1  0.000  0.260  0.046  0.306
  2  0.000  0.098  0.067  0.165
tot  0.000  0.358  0.113  0.471
 
band  13 # energy    9.94722418 # occ.  0.00000000
 
ion      s      p      d    tot
  1  0.040  0.127  0.037  0.204
  2  0.030  0.235  0.033  0.298
tot  0.069  0.362  0.071  0.502
 
band  14 # energy   11.95368928 # occ.  0.00000000
 
ion      s      p      d    tot
  1  0.000  0.056  0.123  0.179
  2  0.000  0.026  0.123  0.149
tot  0.000  0.082  0.246  0.328
 
band  15 # energy   12.79147075 # occ.  0.00000000
 
ion      s      p      d    tot
  1  0.020  0.180  0.041  0.241
  2  0.006  0.074  0.032  0.112
tot  0.026  0.255  0.074  0.354
 
band  16 # energy   14.57756967 # occ.  0.00000000
 
ion      s      p      d    tot
  1  0.041  0.077  0.068  0.186
  2  0.029  0.047  0.055  0.131
tot  0.070  0.124  0.123  0.317
 

 k-point    9 :   -0.16666667 0.16666667 0.00000000     weight = 0.05555556

band   1 # energy  -12.03570914 # occ.  2.00000000
 
ion      s      p      d    tot
  1  0.001  0.001  0.962  0.964
  2  0.015  0.002  0.000  0.017
tot  0.016  0.002  0.963  0.981
 
band   2 # energy  -11.97575087 # occ.  2.00000000
 
ion      s      p      d    tot
  1  0.000  0.000  0.985  0.985
  2  0.000  0.003  0.000  0.004
tot  0.000  0.003  0.985  0.988
 
band   3 # energy  -11.97259046 # occ.  2.00000000
 
ion      s      p      d    tot
  1  0.000  0.000  0.985  0.985
  2  0.000  0.003  0.000  0.003
tot  0.000  0.003  0.985  0.988
 
band   4 # energy  -11.91330461 # occ.  2.00000000
 
ion      s      p      d    tot
  1  0.000  0.000  0.989  0.989
  2  0.000  0.000  0.000  0.000
tot  0.000  0.000  0.990  0.990
 
band   5 # energy  -11.90839335 # occ.  2.00000000
 
ion      s      p      d    tot
  1  0.000  0.000  0.990  0.990
  2  0.000  0.000  0.000  0.000
tot  0.000  0.000  0.990  0.990
 
band   6 # energy   -9.00736327 # occ.  2.00000000
 
ion      s      p      d    tot
  1  0.156  0.015  0.023  0.195
  2  0.438  0.006  0.000  0.444
tot  0.595  0.021  0.024  0.639
 
band   7 # energy   -1.23640340 # occ.  2.00000000
 
ion      s      p      d    tot
  1  0.242  0.065  0.023  0.331
  2  0.139  0.176  0.005  0.320
tot  0.382  0.241  0.028  0.651
 
band   8 # energy    0.82127387 # occ.  2.00000000
 
ion      s      p      d    tot
  1  0.024  0.171  0.022  0.217
  2  0.003  0.295  0.007  0.305
tot  0.027  0.466  0.029  0.522
 
band   9 # energy    2.41114775 # occ.  2.00000000
 
ion      s      p      d    tot
  1  0.000  0.155  0.042  0.197
  2  0.000  0.419  0.006  0.425
tot  0.000  0.574  0.048  0.621
 
band  10 # energy    5.41452849 # occ.  0.00000000
 
ion      s      p      d    tot
  1  0.213  0.112  0.012  0.337
  2  0.117  0.161  0.017  0.295
tot  0.330  0.273  0.029  0.632
 
band  11 # energy    7.32577200 # occ.  0.00000000
 
ion      s      p      d    tot
  1  0.039  0.198  0.040  0.277
  2  0.038  0.124  0.049  0.212
tot  0.077  0.322  0.090  0.489
 
band  12 # energy    7.45512242 # occ.  0.00000000
 
ion      s      p      d    tot
  1  0.000  0.342  0.024  0.365
  2  0.000  0.078  0.063  0.141
tot  0.000  0.420  0.086  0.506
 
band  13 # energy    8.49030982 # occ.  0.00000000
 
ion      s      p      d    tot
  1  0.017  0.158  0.038  0.213
  2  0.016  0.173  0.047  0.235
tot  0.033  0.331  0.085  0.448
 
band  14 # energy   10.92722156 # occ.  0.00000000
 
ion      s      p      d    tot
  1  0.000  0.002  0.135  0.137
  2  0.000  0.002  0.120  0.122
tot  0.000  0.004  0.255  0.259
 
band  15 # energy   12.68796502 # occ.  0.00000000
 
ion      s      p      d    tot
  1  0.000  0.123  0.076  0.199
  2  0.022  0.085  0.041  0.148
tot  0.022  0.208  0.117  0.347
 
band  16 # energy   13.40440167 # occ.  0.00000000
 
ion      s      p      d    tot
  1  0.103  0.160  0.010  0.272
  2  0.001  0.043  0.050  0.094
tot  0.103  0.203  0.060  0.366
 

 k-point   10 :    0.33333333 0.33333333 0.00000000     weight = 0.02777778

band   1 # energy  -12.07433505 # occ.  2.00000000
 
ion      s      p      d    tot
  1  0.001  0.001  0.955  0.957
  2  0.021  0.001  0.000  0.022
tot  0.021  0.002  0.956  0.978
 
band   2 # energy  -11.95249326 # occ.  2.00000000
 
ion      s      p      d    tot
  1  0.000  0.000  0.987  0.988
  2  0.000  0.002  0.000  0.003
tot  0.000  0.002  0.988  0.990
 
band   3 # energy  -11.95249320 # occ.  2.00000000
 
ion      s      p      d    tot
  1  0.000  0.000  0.987  0.988
  2  0.000  0.002  0.000  0.003
tot  0.000  0.002  0.988  0.990
 
band   4 # energy  -11.92860185 # occ.  2.00000000
 
ion      s      p      d    tot
  1  0.000  0.000  0.986  0.987
  2  0.000  0.001  0.000  0.001
tot  0.000  0.001  0.987  0.988
 
band   5 # energy  -11.90087147 # occ.  2.00000000
 
ion      s      p      d    tot
  1  0.000  0.000  0.991  0.991
  2  0.000  0.000  0.000  0.000
tot  0.000  0.000  0.991  0.991
 
band   6 # energy   -8.26516984 # occ.  2.00000000
 
ion      s      p      d    tot
  1  0.111  0.033  0.033  0.176
  2  0.475  0.009  0.000  0.484
tot  0.586  0.041  0.033  0.660
 
band   7 # energy   -2.47503218 # occ.  2.00000000
 
ion      s      p      d    tot
  1  0.341  0.029  0.021  0.391
  2  0.120  0.152  0.005  0.277
tot  0.460  0.182  0.026  0.668
 
band   8 # energy    0.70178049 # occ.  2.00000000
 
ion      s      p      d    tot
  1  0.000  0.200  0.014  0.214
  2  0.000  0.327  0.003  0.330
tot  0.000  0.526  0.017  0.544
 
band   9 # energy    0.70178061 # occ.  2.00000000
 
ion      s      p      d    tot
  1  0.000  0.200  0.014  0.214
  2  0.000  0.327  0.003  0.330
tot  0.000  0.526  0.017  0.544
 
band  10 # energy    4.39893358 # occ.  0.00000000
 
ion      s      p      d    tot
  1  0.105  0.124  0.035  0.264
  2  0.026  0.047  0.042  0.115
tot  0.131  0.171  0.077  0.379
 
band  11 # energy    5.46862144 # occ.  0.00000000
 
ion      s      p      d    tot
  1  0.095  0.071  0.045  0.212
  2  0.051  0.099  0.035  0.185
tot  0.146  0.170  0.080  0.396
 
band  12 # energy   10.87881282 # occ.  0.00000000
 
ion      s      p      d    tot
  1  0.000  0.289  0.046  0.334
  2  0.000  0.199  0.067  0.266
tot  0.000  0.488  0.113  0.600
 
band  13 # energy   10.87881293 # occ.  0.00000000
 
ion      s      p      d    tot
  1  0.000  0.289  0.046  0.334
  2  0.000  0.199  0.067  0.266
tot  0.000  0.488  0.113  0.600
 
band  14 # energy   11.43667458 # occ.  0.00000000
 
ion      s      p      d    tot
  1  0.074  0.040  0.049  0.162
  2  0.074  0.226  0.034  0.333
tot  0.147  0.266  0.083  0.496
 
band  15 # energy   14.86271082 # occ.  0.00000000
 
ion      s      p      d    tot
  1  0.000  0.000  0.138  0.138
  2  0.000  0.000  0.219  0.219
tot  0.000  0.000  0.357  0.357
 