    2    2    1    1
  0.2258839E+02  0.3997699E-09  0.3997699E-09  0.3997699E-09  0.5000000E-15
  1.000000000000000E-004
  CAR 
 Name                                    
     18     16     16
 
  0.0000000E+00  0.0000000E+00  0.0000000E+00  0.4629630E-02
    1      -10.972900   1.000000
    2      -10.972900   1.000000
    3      -10.972900   1.000000
    4      -10.893402   1.000000
    5      -10.893402   1.000000
    6       -8.939707   1.000000
    7        3.814376   1.000000
    8        3.814377   1.000000
    9        3.814377   1.000000
   10        4.266779   0.000000
   11        7.496222   0.000000
   12        7.496229   0.000000
   13        7.496229   0.000000
   14       11.199666   0.000000
   15       13.917806   0.000000
   16       13.917806   0.000000
 
  0.1666667E+00  0.0000000E+00  0.0000000E+00  0.3703704E-01
    1      -10.995988   1.000000
    2      -10.966917   1.000000
    3      -10.966917   1.000000
    4      -10.893592   1.000000
    5      -10.893592   1.000000
    6       -8.617285   1.000000
    7        1.073666   1.000000
    8        3.429389   1.000000
    9        3.429391   1.000000
   10        5.389696   0.000000
   11        8.046397   0.000000
   12        8.046403   0.000000
   13        8.426055   0.000000
   14       12.581483   0.000000
   15       12.793416   0.000000
   16       12.793417   0.000000
 
  0.3333333E+00  0.0000000E+00  0.0000000E+00  0.3703704E-01
    1      -11.036126   1.000000
    2      -10.957020   1.000000
    3      -10.957020   1.000000
    4      -10.891784   1.000000
    5      -10.891784   1.000000
    6       -7.783886   1.000000
    7       -1.602949   1.000000
    8        2.880004   1.000000
    9        2.880006   1.000000
   10        4.956720   0.000000
   11        8.457270   0.000000
   12        8.457275   0.000000
   13       10.960767   0.000000
   14       12.399069   0.000000
   15       13.417718   0.000000
   16       13.417719   0.000000
 
  0.5000000E+00  0.0000000E+00  0.0000000E+00  0.1851852E-01
    1      -11.054100   1.000000
    2      -10.953405   1.000000
    3      -10.953404   1.000000
    4      -10.889512   1.000000
    5      -10.889512   1.000000
    6       -7.159664   1.000000
    7       -2.872329   1.000000
    8        2.664248   1.000000
    9        2.664250   1.000000
   10        4.737388   0.000000
   11        8.390842   0.000000
   12        8.390847   0.000000
   13       11.390457   0.000000
   14       14.091179   0.000000
   15       15.622573   0.000000
   16       15.622575   0.000000
 
  0.1666667E+00  0.1666667E+00  0.0000000E+00  0.2777778E-01
    1      -11.008187   1.000000
    2      -10.960940   1.000000
    3      -10.960940   1.000000
    4      -10.898819   1.000000
    5      -10.890173   1.000000
    6       -8.509880   1.000000
    7        1.079943   1.000000
    8        2.789104   1.000000
    9        2.789106   1.000000
   10        6.269270   0.000000
   11        6.862094   0.000000
   12        9.052300   0.000000
   13        9.052304   0.000000
   14       11.183352   0.000000
   15       13.304389   0.000000
   16       14.365925   0.000000
 
  0.3333333E+00  0.1666667E+00  0.0000000E+00  0.1111111E+00
    1      -11.039238   1.000000
    2      -10.952275   1.000000
    3      -10.949791   1.000000
    4      -10.901708   1.000000
    5      -10.887660   1.000000
    6       -7.834763   1.000000
    7       -0.955083   1.000000
    8        1.927300   1.000000
    9        2.229169   1.000000
   10        6.243941   0.000000
   11        7.534632   0.000000
   12        9.372370   0.000000
   13        9.844243   0.000000
   14       12.548483   0.000000
   15       14.440780   0.000000
   16       14.692456   0.000000
 
  0.5000000E+00  0.1666667E+00  0.0000000E+00  0.1111111E+00
    1      -11.058385   1.000000
    2      -10.949333   1.000000
    3      -10.945157   1.000000
    4      -10.897255   1.000000
    5      -10.888117   1.000000
    6       -7.028551   1.000000
    7       -2.617141   1.000000
    8        1.143557   1.000000
    9        2.160318   1.000000
   10        6.070897   0.000000
   11        8.205148   0.000000
   12        9.537663   0.000000
   13       10.770774   0.000000
   14       13.543792   0.000000
   15       15.255406   0.000000
   16       15.648261   0.000000
 
 -0.3333333E+00  0.1666667E+00  0.0000000E+00  0.1111111E+00
    1      -11.051619   1.000000
    2      -10.950649   1.000000
    3      -10.949054   1.000000
    4      -10.893762   1.000000
    5      -10.892207   1.000000
    6       -7.257333   1.000000
    7       -2.196377   1.000000
    8        0.942966   1.000000
    9        2.603049   1.000000
   10        6.221167   0.000000
   11        8.459586   0.000000
   12        9.080282   0.000000
   13       10.867049   0.000000
   14       12.801070   0.000000
   15       13.703752   0.000000
   16       15.464845   0.000000
 
 -0.1666667E+00  0.1666667E+00  0.0000000E+00  0.5555556E-01
    1      -11.023327   1.000000
    2      -10.959973   1.000000
    3      -10.956720   1.000000
    4      -10.896424   1.000000
    5      -10.891418   1.000000
    6       -8.117243   1.000000
    7       -0.332599   1.000000
    8        1.690053   1.000000
    9        3.283367   1.000000
   10        6.353204   0.000000
   11        8.225380   0.000000
   12        8.346961   0.000000
   13        9.388772   0.000000
   14       11.760612   0.000000
   15       13.586193   0.000000
   16       14.312514   0.000000
 
  0.3333333E+00  0.3333333E+00  0.0000000E+00  0.2777778E-01
    1      -11.063023   1.000000
    2      -10.936147   1.000000
    3      -10.936147   1.000000
    4      -10.912229   1.000000
    5      -10.883708   1.000000
    6       -7.370955   1.000000
    7       -1.569900   1.000000
    8        1.567653   1.000000
    9        1.567655   1.000000
   10        5.287595   0.000000
   11        6.363290   0.000000
   12       11.797282   0.000000
   13       11.797286   0.000000
   14       12.365401   0.000000
   15       15.684021   0.000000
   16       16.743682   0.000000
 
  0.5000000E+00  0.3333333E+00  0.0000000E+00  0.1111111E+00
    1      -11.075088   1.000000
    2      -10.934183   1.000000
    3      -10.929905   1.000000
    4      -10.911554   1.000000
    5      -10.883810   1.000000
    6       -6.672511   1.000000
    7       -2.627342   1.000000
    8        0.501595   1.000000
    9        1.413980   1.000000
   10        5.565115   0.000000
   11        7.067042   0.000000
   12       11.379703   0.000000
   13       12.073433   0.000000
   14       14.371525   0.000000
   15       16.045007   0.000000
   16       16.615738   0.000000
 
 -0.3333333E+00  0.3333333E+00  0.0000000E+00  0.5555556E-01
    1      -11.067710   1.000000
    2      -10.942648   1.000000
    3      -10.935185   1.000000
    4      -10.901817   1.000000
    5      -10.890141   1.000000
    6       -6.606375   1.000000
    7       -2.677579   1.000000
    8       -0.205493   1.000000
    9        1.840974   1.000000
   10        5.961609   0.000000
   11        9.631870   0.000000
   12       10.942452   0.000000
   13       11.265376   0.000000
   14       11.443552   0.000000
   15       13.408433   0.000000
   16       17.952428   0.000000
 
  0.5000000E+00  0.5000000E+00  0.0000000E+00  0.1388889E-01
    1      -11.085824   1.000000
    2      -10.923311   1.000000
    3      -10.923311   1.000000
    4      -10.919607   1.000000
    5      -10.880477   1.000000
    6       -6.414599   1.000000
    7       -3.042442   1.000000
    8        1.113261   1.000000
    9        1.113263   1.000000
   10        5.157157   0.000000
   11        5.379972   0.000000
   12       13.936612   0.000000
   13       13.936617   0.000000
   14       14.691455   0.000000
   15       17.022944   0.000000
   16       17.108883   0.000000
 
  0.5000000E+00  0.3333333E+00  0.1666667E+00  0.1111111E+00
    1      -11.059817   1.000000
    2      -10.945616   1.000000
    3      -10.938658   1.000000
    4      -10.904023   1.000000
    5      -10.887370   1.000000
    6       -7.116345   1.000000
    7       -2.019277   1.000000
    8        0.563029   1.000000
    9        1.739782   1.000000
   10        7.186159   0.000000
   11        7.602839   0.000000
   12        8.811581   0.000000
   13       11.595022   0.000000
   14       13.132718   0.000000
   15       14.850812   0.000000
   16       16.840186   0.000000
 
 -0.3333333E+00  0.3333333E+00  0.1666667E+00  0.1111111E+00
    1      -11.067402   1.000000
    2      -10.945052   1.000000
    3      -10.933692   1.000000
    4      -10.901546   1.000000
    5      -10.889818   1.000000
    6       -6.605287   1.000000
    7       -2.715930   1.000000
    8        0.110079   1.000000
    9        1.327000   1.000000
   10        7.365999   0.000000
   11        8.076285   0.000000
   12        9.960725   0.000000
   13       11.132051   0.000000
   14       12.370255   0.000000
   15       15.897616   0.000000
   16       16.495079   0.000000
 
 -0.3333333E+00  0.5000000E+00  0.1666667E+00  0.5555556E-01
    1      -11.076369   1.000000
    2      -10.936854   1.000000
    3      -10.927570   1.000000
    4      -10.908563   1.000000
    5      -10.886252   1.000000
    6       -6.370012   1.000000
    7       -2.904881   1.000000
    8        0.429717   1.000000
    9        0.571194   1.000000
   10        6.991254   0.000000
   11        7.202123   0.000000
   12       10.857517   0.000000
   13       11.146948   0.000000
   14       14.796080   0.000000
   15       15.982216   0.000000
   16       17.056665   0.000000
