       N       E                     dE             d eps       ncg     rms          rms(c)
DAV:   1     0.822346093055E+02    0.82235E+02   -0.87414E+03   520   0.149E+03
DAV:   2    -0.264354601433E+01   -0.84878E+02   -0.80880E+02   568   0.309E+02
DAV:   3    -0.916959258139E+01   -0.65260E+01   -0.65018E+01   648   0.666E+01
DAV:   4    -0.926950197377E+01   -0.99909E-01   -0.99900E-01   608   0.910E+00
DAV:   5    -0.927089776572E+01   -0.13958E-02   -0.13958E-02   656   0.933E-01    0.295E+00
DAV:   6    -0.909949220389E+01    0.17141E+00   -0.22816E-01   776   0.923E+00    0.174E+00
DAV:   7    -0.906679165993E+01    0.32701E-01   -0.60563E-02   776   0.207E+00    0.538E-01
DAV:   8    -0.906497108858E+01    0.18206E-02   -0.97721E-03   632   0.113E+00    0.105E-01
DAV:   9    -0.906514302319E+01   -0.17193E-03   -0.70666E-04   624   0.330E-01    0.424E-02
DAV:  10    -0.906517812105E+01   -0.35098E-04   -0.52863E-05   736   0.740E-02    0.228E-02
DAV:  11    -0.906520007598E+01   -0.21955E-04   -0.25152E-05   568   0.510E-02    0.267E-03
DAV:  12    -0.906520009020E+01   -0.14229E-07   -0.88428E-07   480   0.151E-02
   1 F= -.90652001E+01 E0= -.90652001E+01  d E =-.537563E-26
