   2   2   1   0
  0.3405476E+02  0.4583961E-09  0.4583961E-09  0.4583961E-09  0.5000000E-15
  1.000000000000000E-004
  CAR 
 Name                                    
     13.17411357     -9.86530073  301      2.67198056      1.00000000
     -9.865  0.0000E+00  0.0000E+00
     -9.789  0.0000E+00  0.0000E+00
     -9.712  0.0000E+00  0.0000E+00
     -9.635  0.0000E+00  0.0000E+00
     -9.558  0.0000E+00  0.0000E+00
     -9.481  0.0000E+00  0.0000E+00
     -9.405  0.0000E+00  0.0000E+00
     -9.328  0.0000E+00  0.0000E+00
     -9.251  0.0000E+00  0.0000E+00
     -9.174  0.0000E+00  0.0000E+00
     -9.097  0.0000E+00  0.0000E+00
     -9.021  0.0000E+00  0.0000E+00
     -8.944  0.0000E+00  0.0000E+00
     -8.867  0.2888E-12  0.2218E-13
     -8.790  0.1206E+00  0.9259E-02
     -8.713  0.7684E+00  0.6827E-01
     -8.637  0.7233E+00  0.1389E+00
     -8.560  0.1447E+01  0.2500E+00
     -8.483  0.3858E+01  0.5463E+00
     -8.406  0.5628E+01  0.9785E+00
     -8.329  0.9627E+01  0.1720E+01
     -8.253  0.3640E+01  0.2000E+01
     -8.176  0.0000E+00  0.2000E+01
     -8.099  0.0000E+00  0.2000E+01
     -8.022  0.0000E+00  0.2000E+01
     -7.945  0.0000E+00  0.2000E+01
     -7.869  0.0000E+00  0.2000E+01
     -7.792  0.0000E+00  0.2000E+01
     -7.715  0.0000E+00  0.2000E+01
     -7.638  0.0000E+00  0.2000E+01
     -7.561  0.0000E+00  0.2000E+01
     -7.485  0.0000E+00  0.2000E+01
     -7.408  0.0000E+00  0.2000E+01
     -7.331  0.0000E+00  0.2000E+01
     -7.254  0.0000E+00  0.2000E+01
     -7.177  0.0000E+00  0.2000E+01
     -7.101  0.0000E+00  0.2000E+01
     -7.024  0.0000E+00  0.2000E+01
     -6.947  0.0000E+00  0.2000E+01
     -6.870  0.0000E+00  0.2000E+01
     -6.793  0.0000E+00  0.2000E+01
     -6.717  0.0000E+00  0.2000E+01
     -6.640  0.0000E+00  0.2000E+01
     -6.563  0.0000E+00  0.2000E+01
     -6.486  0.0000E+00  0.2000E+01
     -6.409  0.0000E+00  0.2000E+01
     -6.333  0.0000E+00  0.2000E+01
     -6.256  0.8098E+00  0.2062E+01
     -6.179  0.2333E+02  0.3860E+01
     -6.102  0.9876E+01  0.4636E+01
     -6.025  0.8122E+01  0.5268E+01
     -5.949  0.9443E+00  0.5341E+01
     -5.872  0.5884E+01  0.5793E+01
     -5.795  0.2694E+01  0.6000E+01
     -5.718  0.1581E-01  0.6001E+01
     -5.641  0.1914E+01  0.6148E+01
     -5.565  0.1451E+02  0.7264E+01
     -5.488  0.1408E+02  0.8401E+01
     -5.411  0.2280E+02  0.1020E+02
     -5.334  0.4463E+01  0.1055E+02
     -5.257  0.3458E+01  0.1081E+02
     -5.181  0.2000E+01  0.1098E+02
     -5.104  0.7727E+01  0.1157E+02
     -5.027  0.2532E+01  0.1178E+02
     -4.950  0.2725E+01  0.1199E+02
     -4.873  0.0000E+00  0.1200E+02
     -4.797  0.0000E+00  0.1200E+02
     -4.720  0.0000E+00  0.1200E+02
     -4.643  0.0000E+00  0.1200E+02
     -4.566  0.0000E+00  0.1200E+02
     -4.489  0.0000E+00  0.1200E+02
     -4.413  0.0000E+00  0.1200E+02
     -4.336  0.0000E+00  0.1200E+02
     -4.259  0.0000E+00  0.1200E+02
     -4.182  0.0000E+00  0.1200E+02
     -4.105  0.0000E+00  0.1200E+02
     -4.029  0.0000E+00  0.1200E+02
     -3.952  0.0000E+00  0.1200E+02
     -3.875  0.0000E+00  0.1200E+02
     -3.798  0.0000E+00  0.1200E+02
     -3.721  0.0000E+00  0.1200E+02
     -3.645  0.0000E+00  0.1200E+02
     -3.568  0.0000E+00  0.1200E+02
     -3.491  0.0000E+00  0.1200E+02
     -3.414  0.0000E+00  0.1200E+02
     -3.337  0.0000E+00  0.1200E+02
     -3.261  0.0000E+00  0.1200E+02
     -3.184  0.0000E+00  0.1200E+02
     -3.107  0.0000E+00  0.1200E+02
     -3.030  0.0000E+00  0.1200E+02
     -2.953  0.0000E+00  0.1200E+02
     -2.877  0.0000E+00  0.1200E+02
     -2.800  0.0000E+00  0.1200E+02
     -2.723  0.0000E+00  0.1200E+02
     -2.646  0.0000E+00  0.1200E+02
     -2.569  0.0000E+00  0.1200E+02
     -2.493  0.0000E+00  0.1200E+02
     -2.416  0.0000E+00  0.1200E+02
     -2.339  0.0000E+00  0.1200E+02
     -2.262  0.0000E+00  0.1200E+02
     -2.185  0.0000E+00  0.1200E+02
     -2.109  0.2242E-01  0.1200E+02
     -2.032  0.4598E+00  0.1204E+02
     -1.955  0.1563E+01  0.1216E+02
     -1.878  0.3139E+01  0.1240E+02
     -1.802  0.2937E+01  0.1262E+02
     -1.725  0.2075E+01  0.1278E+02
     -1.648  0.3614E+01  0.1306E+02
     -1.571  0.1648E+00  0.1308E+02
     -1.494  0.2729E+01  0.1329E+02
     -1.418  0.4652E-10  0.1329E+02
     -1.341  0.1447E+01  0.1340E+02
     -1.264  0.1822E+00  0.1341E+02
     -1.187  0.7823E+00  0.1347E+02
     -1.110  0.7234E+00  0.1353E+02
     -1.034  0.0000E+00  0.1353E+02
     -0.957  0.0000E+00  0.1353E+02
     -0.880  0.1608E-04  0.1353E+02
     -0.803  0.1447E+01  0.1364E+02
     -0.726  0.1447E+01  0.1375E+02
     -0.650  0.0000E+00  0.1375E+02
     -0.573  0.0000E+00  0.1375E+02
     -0.496  0.4434E-05  0.1375E+02
     -0.419  0.1447E+01  0.1386E+02
     -0.342  0.4376E+00  0.1389E+02
     -0.266  0.2858E+00  0.1392E+02
     -0.189  0.1447E+01  0.1403E+02
     -0.112  0.1447E+01  0.1414E+02
     -0.035  0.0000E+00  0.1414E+02
      0.042  0.1421E+01  0.1425E+02
      0.118  0.2893E+01  0.1447E+02
      0.195  0.3321E+00  0.1450E+02
      0.272  0.1838E+01  0.1464E+02
      0.349  0.1808E+01  0.1478E+02
      0.426  0.2709E+01  0.1499E+02
      0.502  0.1582E-04  0.1500E+02
      0.579  0.3135E+01  0.1524E+02
      0.656  0.1838E+01  0.1538E+02
      0.733  0.4791E+01  0.1575E+02
      0.810  0.1462E+01  0.1588E+02
      0.886  0.1432E+01  0.1599E+02
      0.963  0.7349E+00  0.1605E+02
      1.040  0.4463E+01  0.1639E+02
      1.117  0.8722E+00  0.1646E+02
      1.194  0.3329E+01  0.1671E+02
      1.270  0.7575E-01  0.1672E+02
      1.347  0.3300E+01  0.1697E+02
      1.424  0.3346E-04  0.1697E+02
      1.501  0.3114E+01  0.1721E+02
      1.578  0.3136E+01  0.1745E+02
      1.654  0.1162E+01  0.1755E+02
      1.731  0.3916E-12  0.1755E+02
      1.808  0.1563E+00  0.1756E+02
      1.885  0.1385E+01  0.1766E+02
      1.962  0.6504E+00  0.1772E+02
      2.038  0.1703E+01  0.1785E+02
      2.115  0.6029E+00  0.1791E+02
      2.192  0.0000E+00  0.1791E+02
      2.269  0.0000E+00  0.1791E+02
      2.346  0.8163E-04  0.1791E+02
      2.422  0.9644E+00  0.1798E+02
      2.499  0.0000E+00  0.1798E+02
      2.576  0.9607E-09  0.1798E+02
      2.653  0.2411E+00  0.1800E+02
      2.730  0.0000E+00  0.1800E+02
      2.806  0.0000E+00  0.1800E+02
      2.883  0.0000E+00  0.1800E+02
      2.960  0.0000E+00  0.1800E+02
      3.037  0.0000E+00  0.1800E+02
      3.114  0.6676E-01  0.1801E+02
      3.190  0.5380E-01  0.1801E+02
      3.267  0.0000E+00  0.1801E+02
      3.344  0.0000E+00  0.1801E+02
      3.421  0.0000E+00  0.1801E+02
      3.498  0.0000E+00  0.1801E+02
      3.574  0.0000E+00  0.1801E+02
      3.651  0.0000E+00  0.1801E+02
      3.728  0.0000E+00  0.1801E+02
      3.805  0.0000E+00  0.1801E+02
      3.882  0.0000E+00  0.1801E+02
      3.958  0.0000E+00  0.1801E+02
      4.035  0.0000E+00  0.1801E+02
      4.112  0.7456E-11  0.1801E+02
      4.189  0.4838E+00  0.1805E+02
      4.266  0.1284E+01  0.1815E+02
      4.342  0.6438E+00  0.1819E+02
      4.419  0.0000E+00  0.1819E+02
      4.496  0.0000E+00  0.1819E+02
      4.573  0.0000E+00  0.1819E+02
      4.650  0.0000E+00  0.1819E+02
      4.726  0.0000E+00  0.1819E+02
      4.803  0.2089E-11  0.1819E+02
      4.880  0.7234E+00  0.1825E+02
      4.957  0.1050E+01  0.1833E+02
      5.034  0.3612E+00  0.1836E+02
      5.110  0.4089E+01  0.1868E+02
      5.187  0.5671E+01  0.1913E+02
      5.264  0.2199E+01  0.1931E+02
      5.341  0.7507E+00  0.1937E+02
      5.418  0.1009E+01  0.1944E+02
      5.494  0.4383E+00  0.1948E+02
      5.571  0.6670E+00  0.1953E+02
      5.648  0.0000E+00  0.1953E+02
      5.725  0.4459E-06  0.1953E+02
      5.802  0.1447E+01  0.1964E+02
      5.878  0.4345E-02  0.1964E+02
      5.955  0.2166E+01  0.1981E+02
      6.032  0.2112E+01  0.1997E+02
      6.109  0.2488E+01  0.2016E+02
      6.185  0.3598E+01  0.2047E+02
      6.262  0.0000E+00  0.2047E+02
      6.339  0.3132E-14  0.2047E+02
      6.416  0.2888E+01  0.2069E+02
      6.493  0.1447E+01  0.2081E+02
      6.569  0.1447E+01  0.2092E+02
      6.646  0.0000E+00  0.2092E+02
      6.723  0.1060E+00  0.2092E+02
      6.800  0.0000E+00  0.2093E+02
      6.877  0.0000E+00  0.2093E+02
      6.953  0.1347E+01  0.2103E+02
      7.030  0.3628E+01  0.2132E+02
      7.107  0.2702E+01  0.2152E+02
      7.184  0.7476E+00  0.2158E+02
      7.261  0.8800E+00  0.2165E+02
      7.337  0.3605E+01  0.2193E+02
      7.414  0.9630E+00  0.2200E+02
      7.491  0.1878E+01  0.2214E+02
      7.568  0.1012E+01  0.2222E+02
      7.645  0.3145E+01  0.2246E+02
      7.721  0.1772E+01  0.2261E+02
      7.798  0.3496E-04  0.2261E+02
      7.875  0.1455E+01  0.2272E+02
      7.952  0.1571E+01  0.2284E+02
      8.029  0.3040E+01  0.2308E+02
      8.105  0.4002E+01  0.2339E+02
      8.182  0.1441E+01  0.2350E+02
      8.259  0.5134E+00  0.2354E+02
      8.336  0.2380E+01  0.2372E+02
      8.413  0.1603E-10  0.2372E+02
      8.489  0.2893E+01  0.2394E+02
      8.566  0.1153E-12  0.2394E+02
      8.643  0.9643E+00  0.2402E+02
      8.720  0.1447E+01  0.2413E+02
      8.797  0.1447E+01  0.2424E+02
      8.873  0.2715E-11  0.2424E+02
      8.950  0.1461E+01  0.2435E+02
      9.027  0.2156E+01  0.2452E+02
      9.104  0.7234E+00  0.2457E+02
      9.181  0.1285E+01  0.2467E+02
      9.257  0.6259E+00  0.2473E+02
      9.334  0.3480E+01  0.2501E+02
      9.411  0.7360E+00  0.2508E+02
      9.488  0.1027E+01  0.2515E+02
      9.565  0.1907E+01  0.2531E+02
      9.641  0.5236E+00  0.2539E+02
      9.718  0.2892E+01  0.2561E+02
      9.795  0.2525E+00  0.2563E+02
      9.872  0.2669E+01  0.2584E+02
      9.949  0.8587E+00  0.2591E+02
     10.025  0.1080E+01  0.2599E+02
     10.102  0.3845E+01  0.2629E+02
     10.179  0.2916E-02  0.2629E+02
     10.256  0.3367E+01  0.2655E+02
     10.333  0.9707E+00  0.2662E+02
     10.409  0.8587E+00  0.2669E+02
     10.486  0.1553E+01  0.2681E+02
     10.563  0.1533E+01  0.2692E+02
     10.640  0.1360E+01  0.2703E+02
     10.717  0.0000E+00  0.2703E+02
     10.793  0.4246E+00  0.2706E+02
     10.870  0.3367E+01  0.2732E+02
     10.947  0.4110E-07  0.2732E+02
     11.024  0.8439E+00  0.2739E+02
     11.101  0.7682E+00  0.2745E+02
     11.177  0.6786E+00  0.2750E+02
     11.254  0.1444E+01  0.2761E+02
     11.331  0.4170E-02  0.2761E+02
     11.408  0.1443E+01  0.2772E+02
     11.485  0.2273E+00  0.2774E+02
     11.561  0.1172E+01  0.2783E+02
     11.638  0.3617E+00  0.2789E+02
     11.715  0.7651E-06  0.2789E+02
     11.792  0.7234E+00  0.2794E+02
     11.869  0.0000E+00  0.2794E+02
     11.945  0.0000E+00  0.2794E+02
     12.022  0.0000E+00  0.2794E+02
     12.099  0.2850E-04  0.2794E+02
     12.176  0.7234E+00  0.2800E+02
     12.253  0.0000E+00  0.2800E+02
     12.329  0.0000E+00  0.2800E+02
     12.406  0.0000E+00  0.2800E+02
     12.483  0.0000E+00  0.2800E+02
     12.560  0.0000E+00  0.2800E+02
     12.637  0.0000E+00  0.2800E+02
     12.713  0.0000E+00  0.2800E+02
     12.790  0.0000E+00  0.2800E+02
     12.867  0.0000E+00  0.2800E+02
     12.944  0.0000E+00  0.2800E+02
     13.021  0.0000E+00  0.2800E+02
     13.097  0.0000E+00  0.2800E+02
     13.174  0.0000E+00  0.2800E+02
     13.17411357     -9.86530073  301      2.67198056      1.00000000
     -9.865  0.0000E+00  0.0000E+00  0.0000E+00  0.0000E+00  0.0000E+00  0.0000E+00  0.0000E+00  0.0000E+00  0.0000E+00  0.0000E+00  0.0000E+00  0.0000E+00
     -9.789  0.0000E+00  0.0000E+00  0.0000E+00  0.0000E+00  0.0000E+00  0.0000E+00  0.0000E+00  0.0000E+00  0.0000E+00  0.0000E+00  0.0000E+00  0.0000E+00
     -9.712  0.0000E+00  0.0000E+00  0.0000E+00  0.0000E+00  0.0000E+00  0.0000E+00  0.0000E+00  0.0000E+00  0.0000E+00  0.0000E+00  0.0000E+00  0.0000E+00
     -9.635  0.0000E+00  0.0000E+00  0.0000E+00  0.0000E+00  0.0000E+00  0.0000E+00  0.0000E+00  0.0000E+00  0.0000E+00  0.0000E+00  0.0000E+00  0.0000E+00
     -9.558  0.0000E+00  0.0000E+00  0.0000E+00  0.0000E+00  0.0000E+00  0.0000E+00  0.0000E+00  0.0000E+00  0.0000E+00  0.0000E+00  0.0000E+00  0.0000E+00
     -9.481  0.0000E+00  0.0000E+00  0.0000E+00  0.0000E+00  0.0000E+00  0.0000E+00  0.0000E+00  0.0000E+00  0.0000E+00  0.0000E+00  0.0000E+00  0.0000E+00
     -9.405  0.0000E+00  0.0000E+00  0.0000E+00  0.0000E+00  0.0000E+00  0.0000E+00  0.0000E+00  0.0000E+00  0.0000E+00  0.0000E+00  0.0000E+00  0.0000E+00
     -9.328  0.0000E+00  0.0000E+00  0.0000E+00  0.0000E+00  0.0000E+00  0.0000E+00  0.0000E+00  0.0000E+00  0.0000E+00  0.0000E+00  0.0000E+00  0.0000E+00
     -9.251  0.0000E+00  0.0000E+00  0.0000E+00  0.0000E+00  0.0000E+00  0.0000E+00  0.0000E+00  0.0000E+00  0.0000E+00  0.0000E+00  0.0000E+00  0.0000E+00
     -9.174  0.0000E+00  0.0000E+00  0.0000E+00  0.0000E+00  0.0000E+00  0.0000E+00  0.0000E+00  0.0000E+00  0.0000E+00  0.0000E+00  0.0000E+00  0.0000E+00
     -9.097  0.0000E+00  0.0000E+00  0.0000E+00  0.0000E+00  0.0000E+00  0.0000E+00  0.0000E+00  0.0000E+00  0.0000E+00  0.0000E+00  0.0000E+00  0.0000E+00
     -9.021  0.0000E+00  0.0000E+00  0.0000E+00  0.0000E+00  0.0000E+00  0.0000E+00  0.0000E+00  0.0000E+00  0.0000E+00  0.0000E+00  0.0000E+00  0.0000E+00
     -8.944  0.0000E+00  0.0000E+00  0.0000E+00  0.0000E+00  0.0000E+00  0.0000E+00  0.0000E+00  0.0000E+00  0.0000E+00  0.0000E+00  0.0000E+00  0.0000E+00
     -8.867  0.1813E-13 -0.1470E-16 -0.1214E-16 -0.1266E-16  0.6562E-28  0.2955E-29  0.5824E-29 -0.2621E-29  0.9116E-27  0.1769E-27  0.2088E-27 -0.3456E-27
     -8.790  0.7567E-02  0.3744E-08  0.3291E-08  0.3281E-08  0.2739E-16  0.1231E-17  0.2421E-17 -0.1112E-17  0.3806E-15  0.7398E-16  0.8721E-16 -0.1442E-15
     -8.713  0.4044E-01 -0.1996E-05 -0.1702E-05 -0.1759E-05  0.1937E-02 -0.1000E-06 -0.8582E-07 -0.8821E-07  0.1445E-01 -0.6869E-06 -0.5832E-06 -0.6035E-06
     -8.637  0.3554E-01 -0.6647E-08 -0.8017E-08 -0.7471E-08  0.2452E-02 -0.3388E-08 -0.3138E-08 -0.2868E-08  0.1850E-01  0.1173E-07  0.1023E-07  0.1070E-07
     -8.560  0.5453E-01  0.2828E-07  0.2603E-07  0.2547E-07  0.8597E-02 -0.9740E-08 -0.1024E-07 -0.1053E-07  0.7353E-01  0.7252E-07  0.6707E-07  0.6802E-07
     -8.483  0.1144E+00  0.9225E-07  0.8712E-07  0.8700E-07  0.2950E-01 -0.1018E-07 -0.1475E-07 -0.1823E-07  0.2709E+00  0.3130E-06  0.2896E-06  0.2946E-06
     -8.406  0.8884E-01 -0.3432E-05 -0.3061E-05 -0.3127E-05  0.5781E-01 -0.2928E-05 -0.2616E-05 -0.2673E-05  0.6141E+00 -0.3032E-04 -0.2705E-04 -0.2765E-04
     -8.329  0.7672E-01  0.2123E-05  0.1892E-05  0.1935E-05  0.1144E+00 -0.1171E-05 -0.1067E-05 -0.1081E-05  0.1251E+01 -0.1111E-04 -0.1011E-04 -0.1027E-04
     -8.253  0.8366E-02  0.1271E-05  0.1142E-05  0.1165E-05  0.4844E-01  0.4089E-05  0.3676E-05  0.3751E-05  0.5110E+00  0.4363E-04  0.3923E-04  0.4001E-04
     -8.176  0.0000E+00  0.0000E+00  0.0000E+00  0.0000E+00  0.0000E+00  0.0000E+00  0.0000E+00  0.0000E+00  0.0000E+00  0.0000E+00  0.0000E+00  0.0000E+00
     -8.099  0.0000E+00  0.0000E+00  0.0000E+00  0.0000E+00  0.0000E+00  0.0000E+00  0.0000E+00  0.0000E+00  0.0000E+00  0.0000E+00  0.0000E+00  0.0000E+00
     -8.022  0.0000E+00  0.0000E+00  0.0000E+00  0.0000E+00  0.0000E+00  0.0000E+00  0.0000E+00  0.0000E+00  0.0000E+00  0.0000E+00  0.0000E+00  0.0000E+00
     -7.945  0.0000E+00  0.0000E+00  0.0000E+00  0.0000E+00  0.0000E+00  0.0000E+00  0.0000E+00  0.0000E+00  0.0000E+00  0.0000E+00  0.0000E+00  0.0000E+00
     -7.869  0.0000E+00  0.0000E+00  0.0000E+00  0.0000E+00  0.0000E+00  0.0000E+00  0.0000E+00  0.0000E+00  0.0000E+00  0.0000E+00  0.0000E+00  0.0000E+00
     -7.792  0.0000E+00  0.0000E+00  0.0000E+00  0.0000E+00  0.0000E+00  0.0000E+00  0.0000E+00  0.0000E+00  0.0000E+00  0.0000E+00  0.0000E+00  0.0000E+00
     -7.715  0.0000E+00  0.0000E+00  0.0000E+00  0.0000E+00  0.0000E+00  0.0000E+00  0.0000E+00  0.0000E+00  0.0000E+00  0.0000E+00  0.0000E+00  0.0000E+00
     -7.638  0.0000E+00  0.0000E+00  0.0000E+00  0.0000E+00  0.0000E+00  0.0000E+00  0.0000E+00  0.0000E+00  0.0000E+00  0.0000E+00  0.0000E+00  0.0000E+00
     -7.561  0.0000E+00  0.0000E+00  0.0000E+00  0.0000E+00  0.0000E+00  0.0000E+00  0.0000E+00  0.0000E+00  0.0000E+00  0.0000E+00  0.0000E+00  0.0000E+00
     -7.485  0.0000E+00  0.0000E+00  0.0000E+00  0.0000E+00  0.0000E+00  0.0000E+00  0.0000E+00  0.0000E+00  0.0000E+00  0.0000E+00  0.0000E+00  0.0000E+00
     -7.408  0.0000E+00  0.0000E+00  0.0000E+00  0.0000E+00  0.0000E+00  0.0000E+00  0.0000E+00  0.0000E+00  0.0000E+00  0.0000E+00  0.0000E+00  0.0000E+00
     -7.331  0.0000E+00  0.0000E+00  0.0000E+00  0.0000E+00  0.0000E+00  0.0000E+00  0.0000E+00  0.0000E+00  0.0000E+00  0.0000E+00  0.0000E+00  0.0000E+00
     -7.254  0.0000E+00  0.0000E+00  0.0000E+00  0.0000E+00  0.0000E+00  0.0000E+00  0.0000E+00  0.0000E+00  0.0000E+00  0.0000E+00  0.0000E+00  0.0000E+00
     -7.177  0.0000E+00  0.0000E+00  0.0000E+00  0.0000E+00  0.0000E+00  0.0000E+00  0.0000E+00  0.0000E+00  0.0000E+00  0.0000E+00  0.0000E+00  0.0000E+00
     -7.101  0.0000E+00  0.0000E+00  0.0000E+00  0.0000E+00  0.0000E+00  0.0000E+00  0.0000E+00  0.0000E+00  0.0000E+00  0.0000E+00  0.0000E+00  0.0000E+00
     -7.024  0.0000E+00  0.0000E+00  0.0000E+00  0.0000E+00  0.0000E+00  0.0000E+00  0.0000E+00  0.0000E+00  0.0000E+00  0.0000E+00  0.0000E+00  0.0000E+00
     -6.947  0.0000E+00  0.0000E+00  0.0000E+00  0.0000E+00  0.0000E+00  0.0000E+00  0.0000E+00  0.0000E+00  0.0000E+00  0.0000E+00  0.0000E+00  0.0000E+00
     -6.870  0.0000E+00  0.0000E+00  0.0000E+00  0.0000E+00  0.0000E+00  0.0000E+00  0.0000E+00  0.0000E+00  0.0000E+00  0.0000E+00  0.0000E+00  0.0000E+00
     -6.793  0.0000E+00  0.0000E+00  0.0000E+00  0.0000E+00  0.0000E+00  0.0000E+00  0.0000E+00  0.0000E+00  0.0000E+00  0.0000E+00  0.0000E+00  0.0000E+00
     -6.717  0.0000E+00  0.0000E+00  0.0000E+00  0.0000E+00  0.0000E+00  0.0000E+00  0.0000E+00  0.0000E+00  0.0000E+00  0.0000E+00  0.0000E+00  0.0000E+00
     -6.640  0.0000E+00  0.0000E+00  0.0000E+00  0.0000E+00  0.0000E+00  0.0000E+00  0.0000E+00  0.0000E+00  0.0000E+00  0.0000E+00  0.0000E+00  0.0000E+00
     -6.563  0.0000E+00  0.0000E+00  0.0000E+00  0.0000E+00  0.0000E+00  0.0000E+00  0.0000E+00  0.0000E+00  0.0000E+00  0.0000E+00  0.0000E+00  0.0000E+00
     -6.486  0.0000E+00  0.0000E+00  0.0000E+00  0.0000E+00  0.0000E+00  0.0000E+00  0.0000E+00  0.0000E+00  0.0000E+00  0.0000E+00  0.0000E+00  0.0000E+00
     -6.409  0.0000E+00  0.0000E+00  0.0000E+00  0.0000E+00  0.0000E+00  0.0000E+00  0.0000E+00  0.0000E+00  0.0000E+00  0.0000E+00  0.0000E+00  0.0000E+00
     -6.333  0.0000E+00  0.0000E+00  0.0000E+00  0.0000E+00  0.0000E+00  0.0000E+00  0.0000E+00  0.0000E+00  0.0000E+00  0.0000E+00  0.0000E+00  0.0000E+00
     -6.256  0.9402E-05  0.1807E-09  0.1816E-09  0.1842E-09  0.2183E-03  0.1416E-08  0.1394E-08  0.1362E-08  0.7442E+00  0.4606E-05  0.4526E-05  0.4417E-05
     -6.179  0.6575E-02  0.2451E-07  0.2431E-07  0.2385E-07  0.6424E-02  0.1624E-07  0.1674E-07  0.1695E-07  0.2158E+02  0.5104E-04  0.5174E-04  0.4975E-04
     -6.102  0.9027E-02 -0.5701E-09 -0.1789E-08 -0.2114E-08  0.3579E-02  0.1647E-08  0.1663E-08  0.1891E-08  0.9116E+01  0.4054E-05  0.4984E-05  0.4510E-05
     -6.025  0.1880E-01  0.2698E-07  0.2668E-07  0.2554E-07  0.4602E-02  0.3627E-08  0.3300E-08  0.3215E-08  0.7384E+01  0.2602E-05  0.3215E-05  0.2750E-05
     -5.949  0.1064E-02 -0.6209E-08 -0.6495E-08 -0.6132E-08  0.8214E-03 -0.6558E-09 -0.7631E-09 -0.6992E-09  0.8605E+00  0.1133E-05  0.1195E-05  0.1121E-05
     -5.872  0.1391E-01  0.3829E-07  0.3826E-07  0.3690E-07  0.5336E-02 -0.2222E-08 -0.2681E-08 -0.2812E-08  0.5279E+01  0.9430E-05  0.9882E-05  0.9271E-05
     -5.795  0.2370E-02  0.1547E-07  0.1561E-07  0.1493E-07  0.2924E-02  0.1667E-07  0.1669E-07  0.1590E-07  0.2418E+01 -0.1803E-05 -0.1682E-05 -0.1664E-05
     -5.718  0.1547E-13  0.5979E-17  0.5593E-17 -0.2401E-17  0.7954E-05 -0.1150E-10 -0.1251E-10 -0.5763E-11  0.1413E-01 -0.7450E-08 -0.9207E-08 -0.1336E-08
     -5.641  0.3152E-02  0.4934E-08  0.4982E-08  0.4990E-08  0.8518E-03 -0.1927E-08 -0.1964E-08 -0.1722E-08  0.1707E+01 -0.3187E-07 -0.9876E-07 -0.1401E-06
     -5.565  0.1028E-01  0.4178E-07  0.4115E-07  0.3912E-07  0.7675E-02  0.5867E-08  0.6375E-08  0.7087E-08  0.1319E+02  0.4553E-04  0.4590E-04  0.4445E-04
     -5.488  0.7983E-02 -0.1024E-07 -0.1044E-07 -0.1011E-07  0.5174E-02 -0.4800E-07 -0.4838E-07 -0.4608E-07  0.1298E+02  0.7721E-04  0.7760E-04  0.7585E-04
     -5.411  0.8512E-02 -0.3434E-07 -0.3501E-07 -0.3381E-07  0.2467E-02  0.2207E-07  0.2204E-07  0.2193E-07  0.2141E+02 -0.1335E-03 -0.1359E-03 -0.1314E-03
     -5.334  0.2771E-01 -0.1327E-08 -0.4604E-08 -0.2248E-08  0.1367E-02  0.1203E-08  0.8855E-09  0.8271E-09  0.4004E+01 -0.2397E-04 -0.2433E-04 -0.2348E-04
     -5.257  0.2479E-01 -0.3222E-08  0.4781E-09 -0.2844E-08  0.3846E-02  0.3822E-08  0.4056E-08  0.3016E-08  0.3002E+01 -0.7383E-05 -0.7100E-05 -0.7204E-05
     -5.181  0.1233E-01  0.6455E-07  0.6851E-07  0.6002E-07  0.2895E-02  0.1353E-07  0.1429E-07  0.1233E-07  0.1732E+01  0.3666E-05  0.4167E-05  0.3351E-05
     -5.104  0.4356E-01 -0.5645E-07 -0.6596E-07 -0.5579E-07  0.1589E-01  0.9718E-08  0.9218E-08  0.7282E-08  0.6586E+01 -0.1164E-04 -0.1174E-04 -0.1125E-04
     -5.027  0.6433E-02 -0.4645E-08 -0.7358E-08 -0.4538E-08  0.8721E-02  0.2366E-08  0.7385E-09  0.1240E-08  0.2115E+01 -0.2697E-05 -0.2862E-05 -0.2577E-05
     -4.950  0.8127E-02 -0.1647E-08 -0.4308E-08 -0.1990E-08  0.8830E-02  0.7654E-08  0.5191E-08  0.6251E-08  0.2280E+01 -0.6616E-06 -0.9933E-06 -0.5939E-06
     -4.873  0.0000E+00  0.0000E+00  0.0000E+00  0.0000E+00  0.0000E+00  0.0000E+00  0.0000E+00  0.0000E+00  0.0000E+00  0.0000E+00  0.0000E+00  0.0000E+00
     -4.797  0.0000E+00  0.0000E+00  0.0000E+00  0.0000E+00  0.0000E+00  0.0000E+00  0.0000E+00  0.0000E+00  0.0000E+00  0.0000E+00  0.0000E+00  0.0000E+00
     -4.720  0.0000E+00  0.0000E+00  0.0000E+00  0.0000E+00  0.0000E+00  0.0000E+00  0.0000E+00  0.0000E+00  0.0000E+00  0.0000E+00  0.0000E+00  0.0000E+00
     -4.643  0.0000E+00  0.0000E+00  0.0000E+00  0.0000E+00  0.0000E+00  0.0000E+00  0.0000E+00  0.0000E+00  0.0000E+00  0.0000E+00  0.0000E+00  0.0000E+00
     -4.566  0.0000E+00  0.0000E+00  0.0000E+00  0.0000E+00  0.0000E+00  0.0000E+00  0.0000E+00  0.0000E+00  0.0000E+00  0.0000E+00  0.0000E+00  0.0000E+00
     -4.489  0.0000E+00  0.0000E+00  0.0000E+00  0.0000E+00  0.0000E+00  0.0000E+00  0.0000E+00  0.0000E+00  0.0000E+00  0.0000E+00  0.0000E+00  0.0000E+00
     -4.413  0.0000E+00  0.0000E+00  0.0000E+00  0.0000E+00  0.0000E+00  0.0000E+00  0.0000E+00  0.0000E+00  0.0000E+00  0.0000E+00  0.0000E+00  0.0000E+00
     -4.336  0.0000E+00  0.0000E+00  0.0000E+00  0.0000E+00  0.0000E+00  0.0000E+00  0.0000E+00  0.0000E+00  0.0000E+00  0.0000E+00  0.0000E+00  0.0000E+00
     -4.259  0.0000E+00  0.0000E+00  0.0000E+00  0.0000E+00  0.0000E+00  0.0000E+00  0.0000E+00  0.0000E+00  0.0000E+00  0.0000E+00  0.0000E+00  0.0000E+00
     -4.182  0.0000E+00  0.0000E+00  0.0000E+00  0.0000E+00  0.0000E+00  0.0000E+00  0.0000E+00  0.0000E+00  0.0000E+00  0.0000E+00  0.0000E+00  0.0000E+00
     -4.105  0.0000E+00  0.0000E+00  0.0000E+00  0.0000E+00  0.0000E+00  0.0000E+00  0.0000E+00  0.0000E+00  0.0000E+00  0.0000E+00  0.0000E+00  0.0000E+00
     -4.029  0.0000E+00  0.0000E+00  0.0000E+00  0.0000E+00  0.0000E+00  0.0000E+00  0.0000E+00  0.0000E+00  0.0000E+00  0.0000E+00  0.0000E+00  0.0000E+00
     -3.952  0.0000E+00  0.0000E+00  0.0000E+00  0.0000E+00  0.0000E+00  0.0000E+00  0.0000E+00  0.0000E+00  0.0000E+00  0.0000E+00  0.0000E+00  0.0000E+00
     -3.875  0.0000E+00  0.0000E+00  0.0000E+00  0.0000E+00  0.0000E+00  0.0000E+00  0.0000E+00  0.0000E+00  0.0000E+00  0.0000E+00  0.0000E+00  0.0000E+00
     -3.798  0.0000E+00  0.0000E+00  0.0000E+00  0.0000E+00  0.0000E+00  0.0000E+00  0.0000E+00  0.0000E+00  0.0000E+00  0.0000E+00  0.0000E+00  0.0000E+00
     -3.721  0.0000E+00  0.0000E+00  0.0000E+00  0.0000E+00  0.0000E+00  0.0000E+00  0.0000E+00  0.0000E+00  0.0000E+00  0.0000E+00  0.0000E+00  0.0000E+00
     -3.645  0.0000E+00  0.0000E+00  0.0000E+00  0.0000E+00  0.0000E+00  0.0000E+00  0.0000E+00  0.0000E+00  0.0000E+00  0.0000E+00  0.0000E+00  0.0000E+00
     -3.568  0.0000E+00  0.0000E+00  0.0000E+00  0.0000E+00  0.0000E+00  0.0000E+00  0.0000E+00  0.0000E+00  0.0000E+00  0.0000E+00  0.0000E+00  0.0000E+00
     -3.491  0.0000E+00  0.0000E+00  0.0000E+00  0.0000E+00  0.0000E+00  0.0000E+00  0.0000E+00  0.0000E+00  0.0000E+00  0.0000E+00  0.0000E+00  0.0000E+00
     -3.414  0.0000E+00  0.0000E+00  0.0000E+00  0.0000E+00  0.0000E+00  0.0000E+00  0.0000E+00  0.0000E+00  0.0000E+00  0.0000E+00  0.0000E+00  0.0000E+00
     -3.337  0.0000E+00  0.0000E+00  0.0000E+00  0.0000E+00  0.0000E+00  0.0000E+00  0.0000E+00  0.0000E+00  0.0000E+00  0.0000E+00  0.0000E+00  0.0000E+00
     -3.261  0.0000E+00  0.0000E+00  0.0000E+00  0.0000E+00  0.0000E+00  0.0000E+00  0.0000E+00  0.0000E+00  0.0000E+00  0.0000E+00  0.0000E+00  0.0000E+00
     -3.184  0.0000E+00  0.0000E+00  0.0000E+00  0.0000E+00  0.0000E+00  0.0000E+00  0.0000E+00  0.0000E+00  0.0000E+00  0.0000E+00  0.0000E+00  0.0000E+00
     -3.107  0.0000E+00  0.0000E+00  0.0000E+00  0.0000E+00  0.0000E+00  0.0000E+00  0.0000E+00  0.0000E+00  0.0000E+00  0.0000E+00  0.0000E+00  0.0000E+00
     -3.030  0.0000E+00  0.0000E+00  0.0000E+00  0.0000E+00  0.0000E+00  0.0000E+00  0.0000E+00  0.0000E+00  0.0000E+00  0.0000E+00  0.0000E+00  0.0000E+00
     -2.953  0.0000E+00  0.0000E+00  0.0000E+00  0.0000E+00  0.0000E+00  0.0000E+00  0.0000E+00  0.0000E+00  0.0000E+00  0.0000E+00  0.0000E+00  0.0000E+00
     -2.877  0.0000E+00  0.0000E+00  0.0000E+00  0.0000E+00  0.0000E+00  0.0000E+00  0.0000E+00  0.0000E+00  0.0000E+00  0.0000E+00  0.0000E+00  0.0000E+00
     -2.800  0.0000E+00  0.0000E+00  0.0000E+00  0.0000E+00  0.0000E+00  0.0000E+00  0.0000E+00  0.0000E+00  0.0000E+00  0.0000E+00  0.0000E+00  0.0000E+00
     -2.723  0.0000E+00  0.0000E+00  0.0000E+00  0.0000E+00  0.0000E+00  0.0000E+00  0.0000E+00  0.0000E+00  0.0000E+00  0.0000E+00  0.0000E+00  0.0000E+00
     -2.646  0.0000E+00  0.0000E+00  0.0000E+00  0.0000E+00  0.0000E+00  0.0000E+00  0.0000E+00  0.0000E+00  0.0000E+00  0.0000E+00  0.0000E+00  0.0000E+00
     -2.569  0.0000E+00  0.0000E+00  0.0000E+00  0.0000E+00  0.0000E+00  0.0000E+00  0.0000E+00  0.0000E+00  0.0000E+00  0.0000E+00  0.0000E+00  0.0000E+00
     -2.493  0.0000E+00  0.0000E+00  0.0000E+00  0.0000E+00  0.0000E+00  0.0000E+00  0.0000E+00  0.0000E+00  0.0000E+00  0.0000E+00  0.0000E+00  0.0000E+00
     -2.416  0.0000E+00  0.0000E+00  0.0000E+00  0.0000E+00  0.0000E+00  0.0000E+00  0.0000E+00  0.0000E+00  0.0000E+00  0.0000E+00  0.0000E+00  0.0000E+00
     -2.339  0.0000E+00  0.0000E+00  0.0000E+00  0.0000E+00  0.0000E+00  0.0000E+00  0.0000E+00  0.0000E+00  0.0000E+00  0.0000E+00  0.0000E+00  0.0000E+00
     -2.262  0.0000E+00  0.0000E+00  0.0000E+00  0.0000E+00  0.0000E+00  0.0000E+00  0.0000E+00  0.0000E+00  0.0000E+00  0.0000E+00  0.0000E+00  0.0000E+00
     -2.185  0.0000E+00  0.0000E+00  0.0000E+00  0.0000E+00  0.0000E+00  0.0000E+00  0.0000E+00  0.0000E+00  0.0000E+00  0.0000E+00  0.0000E+00  0.0000E+00
     -2.109  0.3682E-02  0.1278E-05  0.1275E-05  0.1276E-05  0.5839E-03  0.2027E-06  0.2022E-06  0.2024E-06  0.1723E-04 -0.1416E-08 -0.1383E-08 -0.1378E-08
     -2.032  0.7553E-01 -0.1338E-05 -0.1337E-05 -0.1342E-05  0.1198E-01 -0.2058E-06 -0.2053E-06 -0.2052E-06  0.3535E-03 -0.8595E-09 -0.7948E-09 -0.7867E-09
     -1.955  0.3737E+00 -0.3184E-05 -0.2758E-05 -0.3000E-05  0.4440E-02 -0.7410E-07 -0.6151E-07 -0.6975E-07  0.2531E-01 -0.8683E-07 -0.7165E-07 -0.7852E-07
     -1.878  0.6463E+00  0.3841E-05  0.3535E-05  0.3739E-05  0.4158E-01  0.3421E-06  0.3293E-06  0.3372E-06  0.3029E-01  0.1380E-06  0.1316E-06  0.1390E-06
     -1.802  0.6004E+00 -0.3031E-05 -0.2894E-05 -0.2975E-05  0.3846E-01 -0.2676E-06 -0.2680E-06 -0.2678E-06  0.5816E-01 -0.1127E-06 -0.9532E-07 -0.9772E-07
     -1.725  0.5060E+00  0.5857E-06  0.5290E-06  0.5427E-06  0.1421E-01 -0.2799E-08  0.2525E-08  0.1212E-08  0.1949E-01  0.5127E-07  0.4797E-07  0.5029E-07
     -1.648  0.7706E+00  0.1345E-05  0.1217E-05  0.1189E-05  0.4093E-01  0.1800E-06  0.1800E-06  0.1763E-06  0.8765E-01  0.2174E-06  0.2057E-06  0.2059E-06
     -1.571  0.2837E-01  0.8168E-06  0.8828E-06  0.8854E-06  0.3878E-02  0.1161E-06  0.1250E-06  0.1253E-06  0.3869E-02  0.1117E-06  0.1204E-06  0.1209E-06
     -1.494  0.5113E+00 -0.2768E-05 -0.2794E-05 -0.2808E-05  0.4563E-01 -0.2916E-06 -0.3005E-06 -0.2992E-06  0.8311E-01 -0.3232E-06 -0.3242E-06 -0.3241E-06
     -1.418  0.9621E-11 -0.4478E-15 -0.2995E-15 -0.3623E-15  0.5910E-12 -0.2665E-16 -0.1755E-16 -0.2103E-16  0.1674E-11 -0.7402E-16 -0.4888E-16 -0.5948E-16
     -1.341  0.2992E+00  0.1929E-06  0.1197E-06  0.1478E-06  0.1838E-01  0.2454E-07  0.2064E-07  0.2314E-07  0.5207E-01  0.9244E-07  0.8000E-07  0.8731E-07
     -1.264  0.2601E-01  0.3566E-05  0.3656E-05  0.3621E-05  0.5076E-02  0.6944E-06  0.7120E-06  0.7052E-06  0.7136E-02  0.9347E-06  0.9588E-06  0.9499E-06
     -1.187  0.1116E+00 -0.3697E-05 -0.3788E-05 -0.3757E-05  0.2179E-01 -0.7075E-06 -0.7256E-06 -0.7194E-06  0.3063E-01 -0.9397E-06 -0.9641E-06 -0.9544E-06
     -1.110  0.1447E+00 -0.8379E-07 -0.8713E-07 -0.9065E-07  0.5001E-02 -0.4231E-08 -0.3846E-08 -0.3869E-08  0.4400E-01  0.1134E-07  0.1204E-07  0.1310E-07
     -1.034  0.0000E+00  0.0000E+00  0.0000E+00  0.0000E+00  0.0000E+00  0.0000E+00  0.0000E+00  0.0000E+00  0.0000E+00  0.0000E+00  0.0000E+00  0.0000E+00
     -0.957  0.0000E+00  0.0000E+00  0.0000E+00  0.0000E+00  0.0000E+00  0.0000E+00  0.0000E+00  0.0000E+00  0.0000E+00  0.0000E+00  0.0000E+00  0.0000E+00
     -0.880  0.2562E-05 -0.6366E-10 -0.3246E-10 -0.5595E-10  0.3013E-06 -0.7252E-11 -0.3651E-11 -0.6343E-11  0.8815E-06 -0.2097E-10 -0.1064E-10 -0.1836E-10
     -0.803  0.2305E+00  0.4041E-06  0.5147E-06  0.4967E-06  0.2710E-01  0.5077E-07  0.6557E-07  0.6360E-07  0.7929E-01  0.1397E-06  0.1779E-06  0.1753E-06
     -0.726  0.2279E+00 -0.5782E-06 -0.6987E-06 -0.6933E-06  0.3079E-01 -0.7822E-07 -0.9141E-07 -0.8972E-07  0.7699E-01 -0.1428E-06 -0.1799E-06 -0.1741E-06