 vasp.5.4.1 24Jun15 (build Nov 25 2015 16:39:35) complex                        
  
 executed on         CrayXC-Intel date 2016.09.29  11:22:19
 running on   24 total cores
 distrk:  each k-point on   24 cores,    1 groups
 distr:  one band on NCORES_PER_BAND=  24 cores,    1 groups


--------------------------------------------------------------------------------------------------------


 INCAR:
 POTCAR:    PAW_PBE Cd 06Sep2000                  
 POTCAR:    PAW_PBE Te 08Apr2002                  

 ----------------------------------------------------------------------------- 
|                                                                             |
|           W    W    AA    RRRRR   N    N  II  N    N   GGGG   !!!           |
|           W    W   A  A   R    R  NN   N  II  NN   N  G    G  !!!           |
|           W    W  A    A  R    R  N N  N  II  N N  N  G       !!!           |
|           W WW W  AAAAAA  RRRRR   N  N N  II  N  N N  G  GGG   !            |
|           WW  WW  A    A  R   R   N   NN  II  N   NN  G    G                |
|           W    W  A    A  R    R  N    N  II  N    N   GGGG   !!!           |
|                                                                             |
|      For optimal performance we recommend to set                            |
|        NCORE= 4 - approx SQRT( number of cores)                             |
|      NCORE specifies how many cores store one orbital (NPAR=cpu/NCORE).     |
|      This setting can  greatly improve the performance of VASP for DFT.     |
|      The default, NPAR=number of cores might be grossly inefficient         |
|      on modern multi-core architectures or massively parallel machines.     |
|      Do your own testing !!!!                                               |
|      Unfortunately you need to use the default for GW and RPA calculations. |
|      (for HF NCORE is supported but not extensively tested yet)             |
|                                                                             |
 ----------------------------------------------------------------------------- 

 POTCAR:    PAW_PBE Cd 06Sep2000                  
   VRHFIN =Cd : s2 d10                                                          
   LEXCH  = PE                                                                  
   EATOM  =  1293.1815 eV,   95.0462 Ry                                         
                                                                                
   TITEL  = PAW_PBE Cd 06Sep2000                                                
   LULTRA =        F    use ultrasoft PP ?                                      
   IUNSCR =        1    unscreen: 0-lin 1-nonlin 2-no                           
   RPACOR =    2.000    partial core radius                                     
   POMASS =  112.411; ZVAL   =   12.000    mass and valenz                      
   RCORE  =    2.300    outmost cutoff radius                                   
   RWIGS  =    2.980; RWIGS  =    1.577    wigner-seitz radius (au A)           
   ENMAX  =  274.336; ENMIN  =  205.752 eV                                      
   RCLOC  =    2.054    cutoff for local pot                                    
   LCOR   =        T    correct aug charges                                     
   LPAW   =        T    paw PP                                                  
   EAUG   =  456.106                                                            
   DEXC   =    0.000                                                            
   RMAX   =    2.358    core radius for proj-oper                               
   RAUG   =    1.300    factor for augmentation sphere                          
   RDEP   =    2.450    radius for radial grids                                 
   RDEPT  =    1.955    core radius for aug-charge                              
                                                                                
   Atomic configuration                                                         
   12 entries                                                                   
     n  l   j            E        occ.                                          
     1  0  0.50    -26519.7817   2.0000                                         
     2  0  0.50     -3936.9612   2.0000                                         
     2  1  1.50     -3532.2230   6.0000                                         
     3  0  0.50      -733.7908   2.0000                                         
     3  1  1.50      -601.0792   6.0000                                         
     3  2  2.50      -393.5307  10.0000                                         
     4  0  0.50      -105.8977   2.0000                                         
     4  1  1.50       -66.9488   6.0000                                         
     4  2  2.50       -11.7331  10.0000                                         
     5  0  0.50        -5.6592   2.0000                                         
     5  1  0.50        -1.3606   0.0000                                         
     4  3  2.50        -1.3606   0.0000                                         
   Description                                                                  
     l       E           TYP  RCUT    TYP  RCUT                                 
     2    -11.7331479     23  2.300                                             
     2    -13.0937305     23  2.300                                             
     0     -5.6591502     23  2.300                                             
     0     -1.5561433     23  2.300                                             
     1     -2.7211652     23  2.300                                             
     1      8.3548275     23  2.300                                             
  local pseudopotential read in
  partial core-charges read in
  partial kinetic energy density read in
  atomic valenz-charges read in
  non local Contribution for L=           2  read in
    real space projection operators read in
  non local Contribution for L=           2  read in
    real space projection operators read in
  non local Contribution for L=           0  read in
    real space projection operators read in
  non local Contribution for L=           0  read in
    real space projection operators read in
  non local Contribution for L=           1  read in
    real space projection operators read in
  non local Contribution for L=           1  read in
    real space projection operators read in
    PAW grid and wavefunctions read in
 
   number of l-projection  operators is LMAX  =           6
   number of lm-projection operators is LMMAX =          18
 
 POTCAR:    PAW_PBE Te 08Apr2002                  
   VRHFIN =Te: s2p4                                                             
   LEXCH  = PE                                                                  
   EATOM  =   223.2721 eV,   16.4100 Ry                                         
                                                                                
   TITEL  = PAW_PBE Te 08Apr2002                                                
   LULTRA =        F    use ultrasoft PP ?                                      
   IUNSCR =        1    unscreen: 0-lin 1-nonlin 2-no                           
   RPACOR =    2.200    partial core radius                                     
   POMASS =  127.600; ZVAL   =    6.000    mass and valenz                      
   RCORE  =    2.300    outmost cutoff radius                                   
   RWIGS  =    2.900; RWIGS  =    1.535    wigner-seitz radius (au A)           
   ENMAX  =  174.982; ENMIN  =  131.236 eV                                      
   ICORE  =        3    local potential                                         
   LCOR   =        T    correct aug charges                                     
   LPAW   =        T    paw PP                                                  
   EAUG   =  368.792                                                            
   DEXC   =    0.000                                                            
   RMAX   =    2.345    core radius for proj-oper                               
   RAUG   =    1.300    factor for augmentation sphere                          
   RDEP   =    2.397    radius for radial grids                                 
   RDEPT  =    2.174    core radius for aug-charge                              
                                                                                
   Atomic configuration                                                         
   13 entries                                                                   
     n  l   j            E        occ.                                          
     1  0  0.50    -31621.2075   2.0000                                         
     2  0  0.50     -4848.7941   2.0000                                         
     2  1  1.50     -4352.1960   6.0000                                         
     3  0  0.50      -964.9612   2.0000                                         
     3  1  1.50      -803.6179   6.0000                                         
     3  2  2.50      -559.8710  10.0000                                         
     4  0  0.50      -164.3522   2.0000                                         
     4  1  1.50      -114.3756   6.0000                                         
     4  2  2.50       -41.6483  10.0000                                         
     5  0  0.50       -15.1072   2.0000                                         
     5  1  0.50        -5.9526   4.0000                                         
     5  2  1.50        -5.4423   0.0000                                         
     4  3  2.50        -5.4423   0.0000                                         
   Description                                                                  
     l       E           TYP  RCUT    TYP  RCUT                                 
     0    -15.1072389     23  2.300                                             
     0    -16.4678215     23  2.300                                             
     1     -5.9526306     23  2.300                                             
     1     -2.4873968     23  2.300                                             
     2     -5.4423304     23  2.300                                             
     3     -1.3605826     23  2.300                                             
  local pseudopotential read in
  partial core-charges read in
  partial kinetic energy density read in
  atomic valenz-charges read in
  non local Contribution for L=           0  read in
    real space projection operators read in
  non local Contribution for L=           0  read in
    real space projection operators read in
  non local Contribution for L=           1  read in
    real space projection operators read in
  non local Contribution for L=           1  read in
    real space projection operators read in
  non local Contribution for L=           2  read in
    real space projection operators read in
    PAW grid and wavefunctions read in
 
   number of l-projection  operators is LMAX  =           5
   number of lm-projection operators is LMMAX =          13
 
  PAW_PBE Cd 06Sep2000                  :
 energy of atom  1       EATOM=-1293.1815
 kinetic energy error for atom=    0.0063 (will be added to EATOM!!)
  PAW_PBE Te 08Apr2002                  :
 energy of atom  2       EATOM= -223.2721
 kinetic energy error for atom=    0.0007 (will be added to EATOM!!)
 
 
 POSCAR: CdTe (ICSD, 295K, Rabadanov 2001)       
  positions in direct lattice
  velocities in cartesian coordinates
 exchange correlation table for  LEXCH =        8
   RHO(1)=    0.500       N(1)  =     2000
   RHO(2)=  100.500       N(2)  =     4000
 


--------------------------------------------------------------------------------------------------------


 ion  position               nearest neighbor table
   1  0.000  0.000  0.000-   2 2.81   2 2.81   2 2.81   2 2.81
   2  0.250  0.250  0.250-   1 2.81   1 2.81   1 2.81   1 2.81
 

IMPORTANT INFORMATION: All symmetrisations will be switched off!
NOSYMM: (Re-)initialisation of all symmetry stuff for point group C_1.

 
 
 KPOINTS: Automatic mesh                          

Automatic generation of k-mesh.
Space group operators:
 irot       det(A)        alpha          n_x          n_y          n_z        tau_x        tau_y        tau_z
    1     1.000000     0.000000     1.000000     0.000000     0.000000     0.000000     0.000000     0.000000
 
 Subroutine IBZKPT returns following result:
 ===========================================
 
 Found    216 irreducible k-points:
 
 Following reciprocal coordinates:
            Coordinates               Weight
  0.000000  0.000000  0.000000      1.000000
  0.166667  0.000000  0.000000      1.000000
  0.333333  0.000000  0.000000      1.000000
  0.500000  0.000000  0.000000      1.000000
 -0.333333  0.000000  0.000000      1.000000
 -0.166667  0.000000  0.000000      1.000000
  0.000000  0.166667  0.000000      1.000000
  0.166667  0.166667  0.000000      1.000000
  0.333333  0.166667  0.000000      1.000000
  0.500000  0.166667  0.000000      1.000000
 -0.333333  0.166667  0.000000      1.000000
 -0.166667  0.166667  0.000000      1.000000
  0.000000  0.333333  0.000000      1.000000
  0.166667  0.333333  0.000000      1.000000
  0.333333  0.333333  0.000000      1.000000
  0.500000  0.333333  0.000000      1.000000
 -0.333333  0.333333  0.000000      1.000000
 -0.166667  0.333333  0.000000      1.000000
  0.000000  0.500000  0.000000      1.000000
  0.166667  0.500000  0.000000      1.000000
  0.333333  0.500000  0.000000      1.000000
  0.500000  0.500000  0.000000      1.000000
 -0.333333  0.500000  0.000000      1.000000
 -0.166667  0.500000  0.000000      1.000000
  0.000000 -0.333333  0.000000      1.000000
  0.166667 -0.333333  0.000000      1.000000
  0.333333 -0.333333  0.000000      1.000000
  0.500000 -0.333333  0.000000      1.000000
 -0.333333 -0.333333  0.000000      1.000000
 -0.166667 -0.333333  0.000000      1.000000
  0.000000 -0.166667  0.000000      1.000000
  0.166667 -0.166667  0.000000      1.000000
  0.333333 -0.166667  0.000000      1.000000
  0.500000 -0.166667  0.000000      1.000000
 -0.333333 -0.166667  0.000000      1.000000
 -0.166667 -0.166667  0.000000      1.000000
  0.000000  0.000000  0.166667      1.000000
  0.166667  0.000000  0.166667      1.000000
  0.333333  0.000000  0.166667      1.000000
  0.500000  0.000000  0.166667      1.000000
 -0.333333  0.000000  0.166667      1.000000
 -0.166667  0.000000  0.166667      1.000000
  0.000000  0.166667  0.166667      1.000000
  0.166667  0.166667  0.166667      1.000000
  0.333333  0.166667  0.166667      1.000000
  0.500000  0.166667  0.166667      1.000000
 -0.333333  0.166667  0.166667      1.000000
 -0.166667  0.166667  0.166667      1.000000
  0.000000  0.333333  0.166667      1.000000
  0.166667  0.333333  0.166667      1.000000
  0.333333  0.333333  0.166667      1.000000
  0.500000  0.333333  0.166667      1.000000
 -0.333333  0.333333  0.166667      1.000000
 -0.166667  0.333333  0.166667      1.000000
  0.000000  0.500000  0.166667      1.000000
  0.166667  0.500000  0.166667      1.000000
  0.333333  0.500000  0.166667      1.000000
  0.500000  0.500000  0.166667      1.000000
 -0.333333  0.500000  0.166667      1.000000
 -0.166667  0.500000  0.166667      1.000000
  0.000000 -0.333333  0.166667      1.000000
  0.166667 -0.333333  0.166667      1.000000
  0.333333 -0.333333  0.166667      1.000000
  0.500000 -0.333333  0.166667      1.000000
 -0.333333 -0.333333  0.166667      1.000000
 -0.166667 -0.333333  0.166667      1.000000
  0.000000 -0.166667  0.166667      1.000000
  0.166667 -0.166667  0.166667      1.000000
  0.333333 -0.166667  0.166667      1.000000
  0.500000 -0.166667  0.166667      1.000000
 -0.333333 -0.166667  0.166667      1.000000
 -0.166667 -0.166667  0.166667      1.000000
  0.000000  0.000000  0.333333      1.000000
  0.166667  0.000000  0.333333      1.000000
  0.333333  0.000000  0.333333      1.000000
  0.500000  0.000000  0.333333      1.000000
 -0.333333  0.000000  0.333333      1.000000
 -0.166667  0.000000  0.333333      1.000000
  0.000000  0.166667  0.333333      1.000000
  0.166667  0.166667  0.333333      1.000000
  0.333333  0.166667  0.333333      1.000000
  0.500000  0.166667  0.333333      1.000000
 -0.333333  0.166667  0.333333      1.000000
 -0.166667  0.166667  0.333333      1.000000
  0.000000  0.333333  0.333333      1.000000
  0.166667  0.333333  0.333333      1.000000
  0.333333  0.333333  0.333333      1.000000
  0.500000  0.333333  0.333333      1.000000
 -0.333333  0.333333  0.333333      1.000000
 -0.166667  0.333333  0.333333      1.000000
  0.000000  0.500000  0.333333      1.000000
  0.166667  0.500000  0.333333      1.000000
  0.333333  0.500000  0.333333      1.000000
  0.500000  0.500000  0.333333      1.000000
 -0.333333  0.500000  0.333333      1.000000
 -0.166667  0.500000  0.333333      1.000000
  0.000000 -0.333333  0.333333      1.000000
  0.166667 -0.333333  0.333333      1.000000
  0.333333 -0.333333  0.333333      1.000000
  0.500000 -0.333333  0.333333      1.000000
 -0.333333 -0.333333  0.333333      1.000000
 -0.166667 -0.333333  0.333333      1.000000
  0.000000 -0.166667  0.333333      1.000000
  0.166667 -0.166667  0.333333      1.000000
  0.333333 -0.166667  0.333333      1.000000
  0.500000 -0.166667  0.333333      1.000000
 -0.333333 -0.166667  0.333333      1.000000
 -0.166667 -0.166667  0.333333      1.000000
  0.000000  0.000000  0.500000      1.000000
  0.166667  0.000000  0.500000      1.000000
  0.333333  0.000000  0.500000      1.000000
  0.500000  0.000000  0.500000      1.000000
 -0.333333  0.000000  0.500000      1.000000
 -0.166667  0.000000  0.500000      1.000000
  0.000000  0.166667  0.500000      1.000000
  0.166667  0.166667  0.500000      1.000000
  0.333333  0.166667  0.500000      1.000000
  0.500000  0.166667  0.500000      1.000000
 -0.333333  0.166667  0.500000      1.000000
 -0.166667  0.166667  0.500000      1.000000
  0.000000  0.333333  0.500000      1.000000
  0.166667  0.333333  0.500000      1.000000
  0.333333  0.333333  0.500000      1.000000
  0.500000  0.333333  0.500000      1.000000
 -0.333333  0.333333  0.500000      1.000000
 -0.166667  0.333333  0.500000      1.000000
  0.000000  0.500000  0.500000      1.000000
  0.166667  0.500000  0.500000      1.000000
  0.333333  0.500000  0.500000      1.000000
  0.500000  0.500000  0.500000      1.000000
 -0.333333  0.500000  0.500000      1.000000
 -0.166667  0.500000  0.500000      1.000000
  0.000000 -0.333333  0.500000      1.000000
  0.166667 -0.333333  0.500000      1.000000
  0.333333 -0.333333  0.500000      1.000000
  0.500000 -0.333333  0.500000      1.000000
 -0.333333 -0.333333  0.500000      1.000000
 -0.166667 -0.333333  0.500000      1.000000
  0.000000 -0.166667  0.500000      1.000000
  0.166667 -0.166667  0.500000      1.000000
  0.333333 -0.166667  0.500000      1.000000
  0.500000 -0.166667  0.500000      1.000000
 -0.333333 -0.166667  0.500000      1.000000
 -0.166667 -0.166667  0.500000      1.000000
  0.000000  0.000000 -0.333333      1.000000
  0.166667  0.000000 -0.333333      1.000000
  0.333333  0.000000 -0.333333      1.000000
  0.500000  0.000000 -0.333333      1.000000
 -0.333333  0.000000 -0.333333      1.000000
 -0.166667  0.000000 -0.333333      1.000000
  0.000000  0.166667 -0.333333      1.000000
  0.166667  0.166667 -0.333333      1.000000
  0.333333  0.166667 -0.333333      1.000000
  0.500000  0.166667 -0.333333      1.000000
 -0.333333  0.166667 -0.333333      1.000000
 -0.166667  0.166667 -0.333333      1.000000
  0.000000  0.333333 -0.333333      1.000000
  0.166667  0.333333 -0.333333      1.000000
  0.333333  0.333333 -0.333333      1.000000
  0.500000  0.333333 -0.333333      1.000000
 -0.333333  0.333333 -0.333333      1.000000
 -0.166667  0.333333 -0.333333      1.000000
  0.000000  0.500000 -0.333333      1.000000
  0.166667  0.500000 -0.333333      1.000000
  0.333333  0.500000 -0.333333      1.000000
  0.500000  0.500000 -0.333333      1.000000
 -0.333333  0.500000 -0.333333      1.000000
 -0.166667  0.500000 -0.333333      1.000000
  0.000000 -0.333333 -0.333333      1.000000
  0.166667 -0.333333 -0.333333      1.000000
  0.333333 -0.333333 -0.333333      1.000000
  0.500000 -0.333333 -0.333333      1.000000
 -0.333333 -0.333333 -0.333333      1.000000
 -0.166667 -0.333333 -0.333333      1.000000
  0.000000 -0.166667 -0.333333      1.000000
  0.166667 -0.166667 -0.333333      1.000000
  0.333333 -0.166667 -0.333333      1.000000
  0.500000 -0.166667 -0.333333      1.000000
 -0.333333 -0.166667 -0.333333      1.000000
 -0.166667 -0.166667 -0.333333      1.000000
  0.000000  0.000000 -0.166667      1.000000
  0.166667  0.000000 -0.166667      1.000000
  0.333333  0.000000 -0.166667      1.000000
  0.500000  0.000000 -0.166667      1.000000
 -0.333333  0.000000 -0.166667      1.000000
 -0.166667  0.000000 -0.166667      1.000000
  0.000000  0.166667 -0.166667      1.000000
  0.166667  0.166667 -0.166667      1.000000
  0.333333  0.166667 -0.166667      1.000000
  0.500000  0.166667 -0.166667      1.000000
 -0.333333  0.166667 -0.166667      1.000000
 -0.166667  0.166667 -0.166667      1.000000
  0.000000  0.333333 -0.166667      1.000000
  0.166667  0.333333 -0.166667      1.000000
  0.333333  0.333333 -0.166667      1.000000
  0.500000  0.333333 -0.166667      1.000000
 -0.333333  0.333333 -0.166667      1.000000
 -0.166667  0.333333 -0.166667      1.000000
  0.000000  0.500000 -0.166667      1.000000
  0.166667  0.500000 -0.166667      1.000000
  0.333333  0.500000 -0.166667      1.000000
  0.500000  0.500000 -0.166667      1.000000
 -0.333333  0.500000 -0.166667      1.000000
 -0.166667  0.500000 -0.166667      1.000000
  0.000000 -0.333333 -0.166667      1.000000
  0.166667 -0.333333 -0.166667      1.000000
  0.333333 -0.333333 -0.166667      1.000000
  0.500000 -0.333333 -0.166667      1.000000
 -0.333333 -0.333333 -0.166667      1.000000
 -0.166667 -0.333333 -0.166667      1.000000
  0.000000 -0.166667 -0.166667      1.000000
  0.166667 -0.166667 -0.166667      1.000000
  0.333333 -0.166667 -0.166667      1.000000
  0.500000 -0.166667 -0.166667      1.000000
 -0.333333 -0.166667 -0.166667      1.000000
 -0.166667 -0.166667 -0.166667      1.000000
 
 Following cartesian coordinates:
            Coordinates               Weight
  0.000000  0.000000  0.000000      1.000000
  0.166667  0.166667  0.166667      1.000000
  0.333333  0.333333  0.333333      1.000000
  0.500000  0.500000  0.500000      1.000000
 -0.333333 -0.333333 -0.333333      1.000000
 -0.166667 -0.166667 -0.166667      1.000000
  0.166667 -0.166667 -0.166667      1.000000
  0.333333  0.000000  0.000000      1.000000
  0.500000  0.166667  0.166667      1.000000
  0.666667  0.333333  0.333333      1.000000
 -0.166667 -0.500000 -0.500000      1.000000
  0.000000 -0.333333 -0.333333      1.000000
  0.333333 -0.333333 -0.333333      1.000000
  0.500000 -0.166667 -0.166667      1.000000
  0.666667  0.000000  0.000000      1.000000
  0.833333  0.166667  0.166667      1.000000
  0.000000 -0.666667 -0.666667      1.000000
  0.166667 -0.500000 -0.500000      1.000000
  0.500000 -0.500000 -0.500000      1.000000
  0.666667 -0.333333 -0.333333      1.000000
  0.833333 -0.166667 -0.166667      1.000000
  1.000000  0.000000  0.000000      1.000000
  0.166667 -0.833333 -0.833333      1.000000
  0.333333 -0.666667 -0.666667      1.000000
 -0.333333  0.333333  0.333333      1.000000
 -0.166667  0.500000  0.500000      1.000000
  0.000000  0.666667  0.666667      1.000000
  0.166667  0.833333  0.833333      1.000000
 -0.666667  0.000000  0.000000      1.000000
 -0.500000  0.166667  0.166667      1.000000
 -0.166667  0.166667  0.166667      1.000000
  0.000000  0.333333  0.333333      1.000000
  0.166667  0.500000  0.500000      1.000000
  0.333333  0.666667  0.666667      1.000000
 -0.500000 -0.166667 -0.166667      1.000000
 -0.333333  0.000000  0.000000      1.000000
 -0.166667  0.166667 -0.166667      1.000000
  0.000000  0.333333  0.000000      1.000000
  0.166667  0.500000  0.166667      1.000000
  0.333333  0.666667  0.333333      1.000000
 -0.500000 -0.166667 -0.500000      1.000000
 -0.333333  0.000000 -0.333333      1.000000
  0.000000  0.000000 -0.333333      1.000000
  0.166667  0.166667 -0.166667      1.000000
  0.333333  0.333333 -0.000000      1.000000
  0.500000  0.500000  0.166667      1.000000
 -0.333333 -0.333333 -0.666667      1.000000
 -0.166667 -0.166667 -0.500000      1.000000
  0.166667 -0.166667 -0.500000      1.000000
  0.333333  0.000000 -0.333333      1.000000
  0.500000  0.166667 -0.166667      1.000000
  0.666667  0.333333  0.000000      1.000000
 -0.166667 -0.500000 -0.833333      1.000000
 -0.000000 -0.333333 -0.666667      1.000000
  0.333333 -0.333333 -0.666667      1.000000
  0.500000 -0.166667 -0.500000      1.000000
  0.666667 -0.000000 -0.333333      1.000000
  0.833333  0.166667 -0.166667      1.000000
  0.000000 -0.666667 -1.000000      1.000000
  0.166667 -0.500000 -0.833333      1.000000
 -0.500000  0.500000  0.166667      1.000000
 -0.333333  0.666667  0.333333      1.000000
 -0.166667  0.833333  0.500000      1.000000
  0.000000  1.000000  0.666667      1.000000
 -0.833333  0.166667 -0.166667      1.000000
 -0.666667  0.333333  0.000000      1.000000
 -0.333333  0.333333  0.000000      1.000000
 -0.166667  0.500000  0.166667      1.000000
 -0.000000  0.666667  0.333333      1.000000
  0.166667  0.833333  0.500000      1.000000
 -0.666667  0.000000 -0.333333      1.000000
 -0.500000  0.166667 -0.166667      1.000000
 -0.333333  0.333333 -0.333333      1.000000
 -0.166667  0.500000 -0.166667      1.000000
  0.000000  0.666667  0.000000      1.000000
  0.166667  0.833333  0.166667      1.000000
 -0.666667  0.000000 -0.666667      1.000000
 -0.500000  0.166667 -0.500000      1.000000
 -0.166667  0.166667 -0.500000      1.000000
  0.000000  0.333333 -0.333333      1.000000
  0.166667  0.500000 -0.166667      1.000000
  0.333333  0.666667  0.000000      1.000000
 -0.500000 -0.166667 -0.833333      1.000000
 -0.333333 -0.000000 -0.666667      1.000000
  0.000000  0.000000 -0.666667      1.000000
  0.166667  0.166667 -0.500000      1.000000
  0.333333  0.333333 -0.333333      1.000000
  0.500000  0.500000 -0.166667      1.000000
 -0.333333 -0.333333 -1.000000      1.000000
 -0.166667 -0.166667 -0.833333      1.000000
  0.166667 -0.166667 -0.833333      1.000000
  0.333333  0.000000 -0.666667      1.000000
  0.500000  0.166667 -0.500000      1.000000
  0.666667  0.333333 -0.333333      1.000000
 -0.166667 -0.500000 -1.166667      1.000000
 -0.000000 -0.333333 -1.000000      1.000000
 -0.666667  0.666667  0.000000      1.000000
 -0.500000  0.833333  0.166667      1.000000
 -0.333333  1.000000  0.333333      1.000000
 -0.166667  1.166667  0.500000      1.000000
 -1.000000  0.333333 -0.333333      1.000000
 -0.833333  0.500000 -0.166667      1.000000
 -0.500000  0.500000 -0.166667      1.000000
 -0.333333  0.666667  0.000000      1.000000
 -0.166667  0.833333  0.166667      1.000000
 -0.000000  1.000000  0.333333      1.000000
 -0.833333  0.166667 -0.500000      1.000000
 -0.666667  0.333333 -0.333333      1.000000
 -0.500000  0.500000 -0.500000      1.000000
 -0.333333  0.666667 -0.333333      1.000000
 -0.166667  0.833333 -0.166667      1.000000
  0.000000  1.000000  0.000000      1.000000
 -0.833333  0.166667 -0.833333      1.000000
 -0.666667  0.333333 -0.666667      1.000000
 -0.333333  0.333333 -0.666667      1.000000
 -0.166667  0.500000 -0.500000      1.000000
  0.000000  0.666667 -0.333333      1.000000
  0.166667  0.833333 -0.166667      1.000000
 -0.666667  0.000000 -1.000000      1.000000
 -0.500000  0.166667 -0.833333      1.000000
 -0.166667  0.166667 -0.833333      1.000000
  0.000000  0.333333 -0.666667      1.000000
  0.166667  0.500000 -0.500000      1.000000
  0.333333  0.666667 -0.333333      1.000000
 -0.500000 -0.166667 -1.166667      1.000000
 -0.333333 -0.000000 -1.000000      1.000000
  0.000000  0.000000 -1.000000      1.000000
  0.166667  0.166667 -0.833333      1.000000
  0.333333  0.333333 -0.666667      1.000000
  0.500000  0.500000 -0.500000      1.000000
 -0.333333 -0.333333 -1.333333      1.000000
 -0.166667 -0.166667 -1.166667      1.000000
 -0.833333  0.833333 -0.166667      1.000000
 -0.666667  1.000000  0.000000      1.000000
 -0.500000  1.166667  0.166667      1.000000
 -0.333333  1.333333  0.333333      1.000000
 -1.166667  0.500000 -0.500000      1.000000
 -1.000000  0.666667 -0.333333      1.000000
 -0.666667  0.666667 -0.333333      1.000000
 -0.500000  0.833333 -0.166667      1.000000
 -0.333333  1.000000  0.000000      1.000000
 -0.166667  1.166667  0.166667      1.000000
 -1.000000  0.333333 -0.666667      1.000000
 -0.833333  0.500000 -0.500000      1.000000
  0.333333 -0.333333  0.333333      1.000000
  0.500000 -0.166667  0.500000      1.000000
  0.666667  0.000000  0.666667      1.000000
  0.833333  0.166667  0.833333      1.000000
  0.000000 -0.666667  0.000000      1.000000
  0.166667 -0.500000  0.166667      1.000000
  0.500000 -0.500000  0.166667      1.000000
  0.666667 -0.333333  0.333333      1.000000
  0.833333 -0.166667  0.500000      1.000000
  1.000000  0.000000  0.666667      1.000000
  0.166667 -0.833333 -0.166667      1.000000
  0.333333 -0.666667 -0.000000      1.000000
  0.666667 -0.666667  0.000000      1.000000
  0.833333 -0.500000  0.166667      1.000000
  1.000000 -0.333333  0.333333      1.000000
  1.166667 -0.166667  0.500000      1.000000
  0.333333 -1.000000 -0.333333      1.000000
  0.500000 -0.833333 -0.166667      1.000000
  0.833333 -0.833333 -0.166667      1.000000
  1.000000 -0.666667  0.000000      1.000000
  1.166667 -0.500000  0.166667      1.000000
  1.333333 -0.333333  0.333333      1.000000
  0.500000 -1.166667 -0.500000      1.000000
  0.666667 -1.000000 -0.333333      1.000000
  0.000000  0.000000  0.666667      1.000000
  0.166667  0.166667  0.833333      1.000000
  0.333333  0.333333  1.000000      1.000000
  0.500000  0.500000  1.166667      1.000000
 -0.333333 -0.333333  0.333333      1.000000
 -0.166667 -0.166667  0.500000      1.000000
  0.166667 -0.166667  0.500000      1.000000
  0.333333  0.000000  0.666667      1.000000
  0.500000  0.166667  0.833333      1.000000
  0.666667  0.333333  1.000000      1.000000
 -0.166667 -0.500000  0.166667      1.000000
 -0.000000 -0.333333  0.333333      1.000000
  0.166667 -0.166667  0.166667      1.000000
  0.333333  0.000000  0.333333      1.000000
  0.500000  0.166667  0.500000      1.000000
  0.666667  0.333333  0.666667      1.000000
 -0.166667 -0.500000 -0.166667      1.000000
  0.000000 -0.333333  0.000000      1.000000
  0.333333 -0.333333  0.000000      1.000000
  0.500000 -0.166667  0.166667      1.000000
  0.666667 -0.000000  0.333333      1.000000
  0.833333  0.166667  0.500000      1.000000
 -0.000000 -0.666667 -0.333333      1.000000
  0.166667 -0.500000 -0.166667      1.000000
  0.500000 -0.500000 -0.166667      1.000000
  0.666667 -0.333333  0.000000      1.000000
  0.833333 -0.166667  0.166667      1.000000
  1.000000  0.000000  0.333333      1.000000
  0.166667 -0.833333 -0.500000      1.000000
  0.333333 -0.666667 -0.333333      1.000000
  0.666667 -0.666667 -0.333333      1.000000
  0.833333 -0.500000 -0.166667      1.000000
  1.000000 -0.333333 -0.000000      1.000000
  1.166667 -0.166667  0.166667      1.000000
  0.333333 -1.000000 -0.666667      1.000000
  0.500000 -0.833333 -0.500000      1.000000
 -0.166667  0.166667  0.500000      1.000000
 -0.000000  0.333333  0.666667      1.000000
  0.166667  0.500000  0.833333      1.000000
  0.333333  0.666667  1.000000      1.000000
 -0.500000 -0.166667  0.166667      1.000000
 -0.333333 -0.000000  0.333333      1.000000
  0.000000  0.000000  0.333333      1.000000
  0.166667  0.166667  0.500000      1.000000
  0.333333  0.333333  0.666667      1.000000
  0.500000  0.500000  0.833333      1.000000
 -0.333333 -0.333333  0.000000      1.000000
 -0.166667 -0.166667  0.166667      1.000000
 


--------------------------------------------------------------------------------------------------------




 Dimension of arrays:
   k-points           NKPTS =    216   k-points in BZ     NKDIM =    216   number of bands    NBANDS=     28
   number of dos      NEDOS =    301   number of ions     NIONS =      2
   non local maximal  LDIM  =      6   non local SUM 2l+1 LMDIM =     18
   total plane-waves  NPLWV =  46656
   max r-space proj   IRMAX =      1   max aug-charges    IRDMAX=  40037
   dimension x,y,z NGX =    36 NGY =   36 NGZ =   36
   dimension x,y,z NGXF=    72 NGYF=   72 NGZF=   72
   support grid    NGXF=    72 NGYF=   72 NGZF=   72
   ions per type =               1   1
 NGX,Y,Z   is equivalent  to a cutoff of  13.06, 13.06, 13.06 a.u.
 NGXF,Y,Z  is equivalent  to a cutoff of  26.11, 26.11, 26.11 a.u.


 I would recommend the setting:
   dimension x,y,z NGX =    33 NGY =   33 NGZ =   33
 SYSTEM =  Name                                    
 POSCAR =  CdTe (ICSD, 295K, Rabadanov 2001)       

 Startparameter for this run:
   NWRITE =      2    write-flag & timer
   PREC   = accura    normal or accurate (medium, high low for compatibility)
   ISTART =      0    job   : 0-new  1-cont  2-samecut
   ICHARG =      2    charge: 1-file 2-atom 10-const
   ISPIN  =      1    spin polarized calculation?
   LNONCOLLINEAR =      T non collinear calculations
   LSORBIT =      T    spin-orbit coupling
   INIWAV =      1    electr: 0-lowe 1-rand  2-diag
   LASPH  =      F    aspherical Exc in radial PAW
   METAGGA=      F    non-selfconsistent MetaGGA calc.

 Electronic Relaxation 1
   ENCUT  =  500.0 eV  36.75 Ry    6.06 a.u.   8.36  8.36  8.36*2*pi/ulx,y,z
   ENINI  =  500.0     initial cutoff
   ENAUG  =  456.1 eV  augmentation charge cutoff
   NELM   =     60;   NELMIN=  2; NELMDL=  0     # of ELM steps 
   EDIFF  = 0.1E-05   stopping-criterion for ELM
   LREAL  =      F    real-space projection
   NLSPLINE    = F    spline interpolate recip. space projectors
   LCOMPAT=      F    compatible to vasp.4.4
   GGA_COMPAT  = T    GGA compatible to vasp.4.4-vasp.4.6
   LMAXPAW     = -100 max onsite density
   LMAXMIX     =    2 max onsite mixed and CHGCAR
   VOSKOWN=      0    Vosko Wilk Nusair interpolation
   ROPT   =    0.00000   0.00000
 Ionic relaxation
   EDIFFG = -.5E-02   stopping-criterion for IOM
   NSW    =      1    number of steps for IOM
   NBLOCK =      1;   KBLOCK =      1    inner block; outer block 
   IBRION =      2    ionic relax: 0-MD 1-quasi-New 2-CG
   NFREE  =      1    steps in history (QN), initial steepest desc. (CG)
   ISIF   =      3    stress and relaxation
   IWAVPR =     11    prediction:  0-non 1-charg 2-wave 3-comb
   ISYM   =      0    0-nonsym 1-usesym 2-fastsym
   LCORR  =      T    Harris-Foulkes like correction to forces

   POTIM  = 0.5000    time-step for ionic-motion
   TEIN   =    0.0    initial temperature
   TEBEG  =    0.0;   TEEND  =   0.0 temperature during run
   SMASS  =  -3.00    Nose mass-parameter (am)
   estimated Nose-frequenzy (Omega)   =  0.10E-29 period in steps =****** mass=  -0.480E-27a.u.
   SCALEE = 1.0000    scale energy and forces
   NPACO  =    256;   APACO  = 16.0  distance and # of slots for P.C.
   PSTRESS=    0.0 pullay stress

  Mass of Ions in am
   POMASS = 112.41127.60
  Ionic Valenz
   ZVAL   =  12.00  6.00
  Atomic Wigner-Seitz radii
   RWIGS  =  -1.00 -1.00
  virtual crystal weights 
   VCA    =   1.00  1.00
   NELECT =      18.0000    total number of electrons
   NUPDOWN=      -1.0000    fix difference up-down

 DOS related values:
   EMIN   =  10.00;   EMAX   =-10.00  energy-range for DOS
   EFERMI =   0.00
   ISMEAR =     0;   SIGMA  =   0.01  broadening in eV -4-tet -1-fermi 0-gaus

 Electronic relaxation 2 (details)
   IALGO  =     38    algorithm
   LDIAG  =      T    sub-space diagonalisation (order eigenvalues)
   LSUBROT=      F    optimize rotation matrix (better conditioning)
   TURBO    =      0    0=normal 1=particle mesh
   IRESTART =      0    0=no restart 2=restart with 2 vectors
   NREBOOT  =      0    no. of reboots
   NMIN     =      0    reboot dimension
   EREF     =   0.00    reference energy to select bands
   IMIX   =      4    mixing-type and parameters
     AMIX     =   0.40;   BMIX     =  1.00
     AMIX_MAG =   1.60;   BMIX_MAG =  1.00
     AMIN     =   0.10
     WC   =   100.;   INIMIX=   1;  MIXPRE=   1;  MAXMIX= -45

 Intra band minimization:
   WEIMIN = 0.0010     energy-eigenvalue tresh-hold
   EBREAK =  0.89E-08  absolut break condition
   DEPER  =   0.30     relativ break condition  

   TIME   =   0.40     timestep for ELM

  volume/ion in A,a.u.               =      34.05       229.81
  Fermi-wavevector in a.u.,A,eV,Ry     =   1.050581  1.985311 15.017042  1.103721
  Thomas-Fermi vector in A             =   2.185590
 
 Write flags
   LWAVE  =      T    write WAVECAR
   LCHARG =      T    write CHGCAR
   LVTOT  =      F    write LOCPOT, total local potential
   LVHAR  =      F    write LOCPOT, Hartree potential only
   LELF   =      F    write electronic localiz. function (ELF)
   LORBIT =     10    0 simple, 1 ext, 2 COOP (PROOUT)


 Dipole corrections
   LMONO  =      F    monopole corrections only (constant potential shift)
   LDIPOL =      F    correct potential (dipole corrections)
   IDIPOL =      0    1-x, 2-y, 3-z, 4-all directions 
   EPSILON=  1.0000000 bulk dielectric constant

 Core level calculations are selected ICORELEVEL =  1
 Exchange correlation treatment:
   GGA     =    PE    GGA type
   LEXCH   =     8    internal setting for exchange type
   VOSKOWN=      0    Vosko Wilk Nusair interpolation
   LHFCALC =     F    Hartree Fock is set to
   LHFONE  =     F    Hartree Fock one center treatment
   AEXX    =    0.0000 exact exchange contribution

 Linear response parameters
   LEPSILON=     F    determine dielectric tensor
   LRPA    =     F    only Hartree local field effects (RPA)
   LNABLA  =     F    use nabla operator in PAW spheres
   LVEL    =     F    velocity operator in full k-point grid
   LINTERFAST=   F  fast interpolation
   KINTER  =     0    interpolate to denser k-point grid
   CSHIFT  =0.1000    complex shift for real part using Kramers Kronig
   OMEGAMAX=  -1.0    maximum frequency
   DEG_THRESHOLD= 0.2000000E-02 threshold for treating states as degnerate
   RTIME   =    0.100 relaxation time in fs

 Orbital magnetization related:
   ORBITALMAG=     F  switch on orbital magnetization
   LCHIMAG   =     F  perturbation theory with respect to B field
   DQ        =  0.001000  dq finite difference perturbation B field



--------------------------------------------------------------------------------------------------------


 conjugate gradient relaxation of ions
 charge density and potential will be updated during run
 non collinear spin polarized calculation
 Variant of blocked Davidson
 Davidson routine will perform the subspace rotation
 perform sub-space diagonalisation
    after iterative eigenvector-optimisation
 modified Broyden-mixing scheme, WC =      100.0
 initial mixing is a Kerker type mixing with AMIX =  0.4000 and BMIX =      1.0000
 Hartree-type preconditioning will be used
 using additional bands           19
 reciprocal scheme for non local part
 use partial core corrections
 calculate Harris-corrections to forces 
   (improved forces if not selfconsistent)
 use gradient corrections 
 use of overlap-Matrix (Vanderbilt PP)
 Gauss-broadening in eV      SIGMA  =   0.01


--------------------------------------------------------------------------------------------------------


  energy-cutoff  :      500.00
  volume of cell :       68.11
      direct lattice vectors                 reciprocal lattice vectors
     3.241350000  3.241350000  0.000000000     0.154256714  0.154256714  0.154256714
     3.241350000  0.000000000 -3.241350000     0.154256714 -0.154256714 -0.154256714
     0.000000000  3.241350000 -3.241350000    -0.154256714  0.154256714 -0.154256714

  length of vectors
     4.583961130  4.583961130  4.583961130     0.267180466  0.267180466  0.267180466


 
 k-points in units of 2pi/SCALE and weight: Automatic mesh                          
   0.00000000  0.00000000  0.00000000       0.005
   0.16666667  0.16666667  0.16666667       0.005
   0.33333333  0.33333333  0.33333333       0.005
   0.50000000  0.50000000  0.50000000       0.005
  -0.33333333 -0.33333333 -0.33333333       0.005
  -0.16666667 -0.16666667 -0.16666667       0.005
   0.16666667 -0.16666667 -0.16666667       0.005
   0.33333333  0.00000000  0.00000000       0.005
   0.50000000  0.16666667  0.16666667       0.005
   0.66666667  0.33333333  0.33333333       0.005
  -0.16666667 -0.50000000 -0.50000000       0.005
   0.00000000 -0.33333333 -0.33333333       0.005
   0.33333333 -0.33333333 -0.33333333       0.005
   0.50000000 -0.16666667 -0.16666667       0.005
   0.66666667  0.00000000  0.00000000       0.005
   0.83333333  0.16666667  0.16666667       0.005
   0.00000000 -0.66666667 -0.66666667       0.005
   0.16666667 -0.50000000 -0.50000000       0.005
   0.50000000 -0.50000000 -0.50000000       0.005
   0.66666667 -0.33333333 -0.33333333       0.005
   0.83333333 -0.16666667 -0.16666667       0.005
   1.00000000  0.00000000  0.00000000       0.005
   0.16666667 -0.83333333 -0.83333333       0.005
   0.33333333 -0.66666667 -0.66666667       0.005
  -0.33333333  0.33333333  0.33333333       0.005
  -0.16666667  0.50000000  0.50000000       0.005
   0.00000000  0.66666667  0.66666667       0.005
   0.16666667  0.83333333  0.83333333       0.005
  -0.66666667  0.00000000  0.00000000       0.005
  -0.50000000  0.16666667  0.16666667       0.005
  -0.16666667  0.16666667  0.16666667       0.005
   0.00000000  0.33333333  0.33333333       0.005
   0.16666667  0.50000000  0.50000000       0.005
   0.33333333  0.66666667  0.66666667       0.005
  -0.50000000 -0.16666667 -0.16666667       0.005
  -0.33333333  0.00000000  0.00000000       0.005
  -0.16666667  0.16666667 -0.16666667       0.005
   0.00000000  0.33333333  0.00000000       0.005
   0.16666667  0.50000000  0.16666667       0.005
   0.33333333  0.66666667  0.33333333       0.005
  -0.50000000 -0.16666667 -0.50000000       0.005
  -0.33333333  0.00000000 -0.33333333       0.005
   0.00000000  0.00000000 -0.33333333       0.005
   0.16666667  0.16666667 -0.16666667       0.005
   0.33333333  0.33333333 -0.00000000       0.005
   0.50000000  0.50000000  0.16666667       0.005
  -0.33333333 -0.33333333 -0.66666667       0.005
  -0.16666667 -0.16666667 -0.50000000       0.005
   0.16666667 -0.16666667 -0.50000000       0.005
   0.33333333  0.00000000 -0.33333333       0.005
   0.50000000  0.16666667 -0.16666667       0.005
   0.66666667  0.33333333  0.00000000       0.005
  -0.16666667 -0.50000000 -0.83333333       0.005
  -0.00000000 -0.33333333 -0.66666667       0.005
   0.33333333 -0.33333333 -0.66666667       0.005
   0.50000000 -0.16666667 -0.50000000       0.005
   0.66666667 -0.00000000 -0.33333333       0.005
   0.83333333  0.16666667 -0.16666667       0.005
   0.00000000 -0.66666667 -1.00000000       0.005
   0.16666667 -0.50000000 -0.83333333       0.005
  -0.50000000  0.50000000  0.16666667       0.005
  -0.33333333  0.66666667  0.33333333       0.005
  -0.16666667  0.83333333  0.50000000       0.005
   0.00000000  1.00000000  0.66666667       0.005
  -0.83333333  0.16666667 -0.16666667       0.005
  -0.66666667  0.33333333  0.00000000       0.005
  -0.33333333  0.33333333  0.00000000       0.005
  -0.16666667  0.50000000  0.16666667       0.005
  -0.00000000  0.66666667  0.33333333       0.005
   0.16666667  0.83333333  0.50000000       0.005
  -0.66666667  0.00000000 -0.33333333       0.005
  -0.50000000  0.16666667 -0.16666667       0.005
  -0.33333333  0.33333333 -0.33333333       0.005
  -0.16666667  0.50000000 -0.16666667       0.005
   0.00000000  0.66666667  0.00000000       0.005
   0.16666667  0.83333333  0.16666667       0.005
  -0.66666667  0.00000000 -0.66666667       0.005
  -0.50000000  0.16666667 -0.50000000       0.005
  -0.16666667  0.16666667 -0.50000000       0.005
   0.00000000  0.33333333 -0.33333333       0.005
   0.16666667  0.50000000 -0.16666667       0.005
   0.33333333  0.66666667  0.00000000       0.005
  -0.50000000 -0.16666667 -0.83333333       0.005
  -0.33333333 -0.00000000 -0.66666667       0.005
   0.00000000  0.00000000 -0.66666667       0.005
   0.16666667  0.16666667 -0.50000000       0.005
   0.33333333  0.33333333 -0.33333333       0.005
   0.50000000  0.50000000 -0.16666667       0.005
  -0.33333333 -0.33333333 -1.00000000       0.005
  -0.16666667 -0.16666667 -0.83333333       0.005
   0.16666667 -0.16666667 -0.83333333       0.005
   0.33333333  0.00000000 -0.66666667       0.005
   0.50000000  0.16666667 -0.50000000       0.005
   0.66666667  0.33333333 -0.33333333       0.005
  -0.16666667 -0.50000000 -1.16666667       0.005
  -0.00000000 -0.33333333 -1.00000000       0.005
  -0.66666667  0.66666667  0.00000000       0.005
  -0.50000000  0.83333333  0.16666667       0.005
  -0.33333333  1.00000000  0.33333333       0.005
  -0.16666667  1.16666667  0.50000000       0.005
  -1.00000000  0.33333333 -0.33333333       0.005
  -0.83333333  0.50000000 -0.16666667       0.005
  -0.50000000  0.50000000 -0.16666667       0.005
  -0.33333333  0.66666667  0.00000000       0.005
  -0.16666667  0.83333333  0.16666667       0.005
  -0.00000000  1.00000000  0.33333333       0.005
  -0.83333333  0.16666667 -0.50000000       0.005
  -0.66666667  0.33333333 -0.33333333       0.005
  -0.50000000  0.50000000 -0.50000000       0.005
  -0.33333333  0.66666667 -0.33333333       0.005
  -0.16666667  0.83333333 -0.16666667       0.005
   0.00000000  1.00000000  0.00000000       0.005
  -0.83333333  0.16666667 -0.83333333       0.005
  -0.66666667  0.33333333 -0.66666667       0.005
  -0.33333333  0.33333333 -0.66666667       0.005
  -0.16666667  0.50000000 -0.50000000       0.005
   0.00000000  0.66666667 -0.33333333       0.005
   0.16666667  0.83333333 -0.16666667       0.005
  -0.66666667  0.00000000 -1.00000000       0.005
  -0.50000000  0.16666667 -0.83333333       0.005
  -0.16666667  0.16666667 -0.83333333       0.005
   0.00000000  0.33333333 -0.66666667       0.005
   0.16666667  0.50000000 -0.50000000       0.005
   0.33333333  0.66666667 -0.33333333       0.005
  -0.50000000 -0.16666667 -1.16666667       0.005
  -0.33333333 -0.00000000 -1.00000000       0.005
   0.00000000  0.00000000 -1.00000000       0.005
   0.16666667  0.16666667 -0.83333333       0.005
   0.33333333  0.33333333 -0.66666667       0.005
   0.50000000  0.50000000 -0.50000000       0.005
  -0.33333333 -0.33333333 -1.33333333       0.005
  -0.16666667 -0.16666667 -1.16666667       0.005
  -0.83333333  0.83333333 -0.16666667       0.005
  -0.66666667  1.00000000  0.00000000       0.005
  -0.50000000  1.16666667  0.16666667       0.005
  -0.33333333  1.33333333  0.33333333       0.005
  -1.16666667  0.50000000 -0.50000000       0.005
  -1.00000000  0.66666667 -0.33333333       0.005
  -0.66666667  0.66666667 -0.33333333       0.005
  -0.50000000  0.83333333 -0.16666667       0.005
  -0.33333333  1.00000000  0.00000000       0.005
  -0.16666667  1.16666667  0.16666667       0.005
  -1.00000000  0.33333333 -0.66666667       0.005
  -0.83333333  0.50000000 -0.50000000       0.005
   0.33333333 -0.33333333  0.33333333       0.005
   0.50000000 -0.16666667  0.50000000       0.005
   0.66666667  0.00000000  0.66666667       0.005
   0.83333333  0.16666667  0.83333333       0.005
   0.00000000 -0.66666667  0.00000000       0.005
   0.16666667 -0.50000000  0.16666667       0.005
   0.50000000 -0.50000000  0.16666667       0.005
   0.66666667 -0.33333333  0.33333333       0.005
   0.83333333 -0.16666667  0.50000000       0.005
   1.00000000  0.00000000  0.66666667       0.005
   0.16666667 -0.83333333 -0.16666667       0.005
   0.33333333 -0.66666667 -0.00000000       0.005
   0.66666667 -0.66666667  0.00000000       0.005
   0.83333333 -0.50000000  0.16666667       0.005
   1.00000000 -0.33333333  0.33333333       0.005
   1.16666667 -0.16666667  0.50000000       0.005
   0.33333333 -1.00000000 -0.33333333       0.005
   0.50000000 -0.83333333 -0.16666667       0.005
   0.83333333 -0.83333333 -0.16666667       0.005
   1.00000000 -0.66666667  0.00000000       0.005
   1.16666667 -0.50000000  0.16666667       0.005
   1.33333333 -0.33333333  0.33333333       0.005
   0.50000000 -1.16666667 -0.50000000       0.005
   0.66666667 -1.00000000 -0.33333333       0.005
   0.00000000  0.00000000  0.66666667       0.005
   0.16666667  0.16666667  0.83333333       0.005
   0.33333333  0.33333333  1.00000000       0.005
   0.50000000  0.50000000  1.16666667       0.005
  -0.33333333 -0.33333333  0.33333333       0.005
  -0.16666667 -0.16666667  0.50000000       0.005
   0.16666667 -0.16666667  0.50000000       0.005
   0.33333333  0.00000000  0.66666667       0.005
   0.50000000  0.16666667  0.83333333       0.005
   0.66666667  0.33333333  1.00000000       0.005
  -0.16666667 -0.50000000  0.16666667       0.005
  -0.00000000 -0.33333333  0.33333333       0.005
   0.16666667 -0.16666667  0.16666667       0.005
   0.33333333  0.00000000  0.33333333       0.005
   0.50000000  0.16666667  0.50000000       0.005
   0.66666667  0.33333333  0.66666667       0.005
  -0.16666667 -0.50000000 -0.16666667       0.005
   0.00000000 -0.33333333  0.00000000       0.005
   0.33333333 -0.33333333  0.00000000       0.005
   0.50000000 -0.16666667  0.16666667       0.005
   0.66666667 -0.00000000  0.33333333       0.005
   0.83333333  0.16666667  0.50000000       0.005
  -0.00000000 -0.66666667 -0.33333333       0.005
   0.16666667 -0.50000000 -0.16666667       0.005
   0.50000000 -0.50000000 -0.16666667       0.005
   0.66666667 -0.33333333  0.00000000       0.005
   0.83333333 -0.16666667  0.16666667       0.005
   1.00000000  0.00000000  0.33333333       0.005
   0.16666667 -0.83333333 -0.50000000       0.005
   0.33333333 -0.66666667 -0.33333333       0.005
   0.66666667 -0.66666667 -0.33333333       0.005
   0.83333333 -0.50000000 -0.16666667       0.005
   1.00000000 -0.33333333 -0.00000000       0.005
   1.16666667 -0.16666667  0.16666667       0.005
   0.33333333 -1.00000000 -0.66666667       0.005
   0.50000000 -0.83333333 -0.50000000       0.005
  -0.16666667  0.16666667  0.50000000       0.005
  -0.00000000  0.33333333  0.66666667       0.005
   0.16666667  0.50000000  0.83333333       0.005
   0.33333333  0.66666667  1.00000000       0.005
  -0.50000000 -0.16666667  0.16666667       0.005
  -0.33333333 -0.00000000  0.33333333       0.005
   0.00000000  0.00000000  0.33333333       0.005
   0.16666667  0.16666667  0.50000000       0.005
   0.33333333  0.33333333  0.66666667       0.005
   0.50000000  0.50000000  0.83333333       0.005
  -0.33333333 -0.33333333  0.00000000       0.005
  -0.16666667 -0.16666667  0.16666667       0.005
 
 k-points in reciprocal lattice and weights: Automatic mesh                          
   0.00000000  0.00000000  0.00000000       0.005
   0.16666667  0.00000000  0.00000000       0.005
   0.33333333  0.00000000  0.00000000       0.005
   0.50000000  0.00000000  0.00000000       0.005
  -0.33333333  0.00000000  0.00000000       0.005
  -0.16666667  0.00000000  0.00000000       0.005
   0.00000000  0.16666667  0.00000000       0.005
   0.16666667  0.16666667  0.00000000       0.005
   0.33333333  0.16666667  0.00000000       0.005
   0.50000000  0.16666667  0.00000000       0.005
  -0.33333333  0.16666667  0.00000000       0.005
  -0.16666667  0.16666667  0.00000000       0.005
   0.00000000  0.33333333  0.00000000       0.005
   0.16666667  0.33333333  0.00000000       0.005
   0.33333333  0.33333333  0.00000000       0.005
   0.50000000  0.33333333  0.00000000       0.005
  -0.33333333  0.33333333  0.00000000       0.005
  -0.16666667  0.33333333  0.00000000       0.005
   0.00000000  0.50000000  0.00000000       0.005
   0.16666667  0.50000000  0.00000000       0.005
   0.33333333  0.50000000  0.00000000       0.005
   0.50000000  0.50000000  0.00000000       0.005
  -0.33333333  0.50000000  0.00000000       0.005
  -0.16666667  0.50000000  0.00000000       0.005
   0.00000000 -0.33333333  0.00000000       0.005
   0.16666667 -0.33333333  0.00000000       0.005
   0.33333333 -0.33333333  0.00000000       0.005
   0.50000000 -0.33333333  0.00000000       0.005
  -0.33333333 -0.33333333  0.00000000       0.005
  -0.16666667 -0.33333333  0.00000000       0.005
   0.00000000 -0.16666667  0.00000000       0.005
   0.16666667 -0.16666667  0.00000000       0.005
   0.33333333 -0.16666667  0.00000000       0.005
   0.50000000 -0.16666667  0.00000000       0.005
  -0.33333333 -0.16666667  0.00000000       0.005
  -0.16666667 -0.16666667  0.00000000       0.005
   0.00000000  0.00000000  0.16666667       0.005
   0.16666667  0.00000000  0.16666667       0.005
   0.33333333  0.00000000  0.16666667       0.005
   0.50000000  0.00000000  0.16666667       0.005
  -0.33333333  0.00000000  0.16666667       0.005
  -0.16666667  0.00000000  0.16666667       0.005
   0.00000000  0.16666667  0.16666667       0.005
   0.16666667  0.16666667  0.16666667       0.005
   0.33333333  0.16666667  0.16666667       0.005
   0.50000000  0.16666667  0.16666667       0.005
  -0.33333333  0.16666667  0.16666667       0.005
  -0.16666667  0.16666667  0.16666667       0.005
   0.00000000  0.33333333  0.16666667       0.005
   0.16666667  0.33333333  0.16666667       0.005
   0.33333333  0.33333333  0.16666667       0.005
   0.50000000  0.33333333  0.16666667       0.005
  -0.33333333  0.33333333  0.16666667       0.005
  -0.16666667  0.33333333  0.16666667       0.005
   0.00000000  0.50000000  0.16666667       0.005
   0.16666667  0.50000000  0.16666667       0.005
   0.33333333  0.50000000  0.16666667       0.005
   0.50000000  0.50000000  0.16666667       0.005
  -0.33333333  0.50000000  0.16666667       0.005
  -0.16666667  0.50000000  0.16666667       0.005
   0.00000000 -0.33333333  0.16666667       0.005
   0.16666667 -0.33333333  0.16666667       0.005
   0.33333333 -0.33333333  0.16666667       0.005
   0.50000000 -0.33333333  0.16666667       0.005
  -0.33333333 -0.33333333  0.16666667       0.005
  -0.16666667 -0.33333333  0.16666667       0.005
   0.00000000 -0.16666667  0.16666667       0.005
   0.16666667 -0.16666667  0.16666667       0.005
   0.33333333 -0.16666667  0.16666667       0.005
   0.50000000 -0.16666667  0.16666667       0.005
  -0.33333333 -0.16666667  0.16666667       0.005
  -0.16666667 -0.16666667  0.16666667       0.005
   0.00000000  0.00000000  0.33333333       0.005
   0.16666667  0.00000000  0.33333333       0.005
   0.33333333  0.00000000  0.33333333       0.005
   0.50000000  0.00000000  0.33333333       0.005
  -0.33333333  0.00000000  0.33333333       0.005
  -0.16666667  0.00000000  0.33333333       0.005
   0.00000000  0.16666667  0.33333333       0.005
   0.16666667  0.16666667  0.33333333       0.005
   0.33333333  0.16666667  0.33333333       0.005
   0.50000000  0.16666667  0.33333333       0.005
  -0.33333333  0.16666667  0.33333333       0.005
  -0.16666667  0.16666667  0.33333333       0.005
   0.00000000  0.33333333  0.33333333       0.005
   0.16666667  0.33333333  0.33333333       0.005
   0.33333333  0.33333333  0.33333333       0.005
   0.50000000  0.33333333  0.33333333       0.005
  -0.33333333  0.33333333  0.33333333       0.005
  -0.16666667  0.33333333  0.33333333       0.005
   0.00000000  0.50000000  0.33333333       0.005
   0.16666667  0.50000000  0.33333333       0.005
   0.33333333  0.50000000  0.33333333       0.005
   0.50000000  0.50000000  0.33333333       0.005
  -0.33333333  0.50000000  0.33333333       0.005
  -0.16666667  0.50000000  0.33333333       0.005
   0.00000000 -0.33333333  0.33333333       0.005
   0.16666667 -0.33333333  0.33333333       0.005
   0.33333333 -0.33333333  0.33333333       0.005
   0.50000000 -0.33333333  0.33333333       0.005
  -0.33333333 -0.33333333  0.33333333       0.005
  -0.16666667 -0.33333333  0.33333333       0.005
   0.00000000 -0.16666667  0.33333333       0.005
   0.16666667 -0.16666667  0.33333333       0.005
   0.33333333 -0.16666667  0.33333333       0.005
   0.50000000 -0.16666667  0.33333333       0.005
  -0.33333333 -0.16666667  0.33333333       0.005
  -0.16666667 -0.16666667  0.33333333       0.005
   0.00000000  0.00000000  0.50000000       0.005
   0.16666667  0.00000000  0.50000000       0.005
   0.33333333  0.00000000  0.50000000       0.005
   0.50000000  0.00000000  0.50000000       0.005
  -0.33333333  0.00000000  0.50000000       0.005
  -0.16666667  0.00000000  0.50000000       0.005
   0.00000000  0.16666667  0.50000000       0.005
   0.16666667  0.16666667  0.50000000       0.005
   0.33333333  0.16666667  0.50000000       0.005
   0.50000000  0.16666667  0.50000000       0.005
  -0.33333333  0.16666667  0.50000000       0.005
  -0.16666667  0.16666667  0.50000000       0.005
   0.00000000  0.33333333  0.50000000       0.005
   0.16666667  0.33333333  0.50000000       0.005
   0.33333333  0.33333333  0.50000000       0.005
   0.50000000  0.33333333  0.50000000       0.005
  -0.33333333  0.33333333  0.50000000       0.005
  -0.16666667  0.33333333  0.50000000       0.005
   0.00000000  0.50000000  0.50000000       0.005
   0.16666667  0.50000000  0.50000000       0.005
   0.33333333  0.50000000  0.50000000       0.005
   0.50000000  0.50000000  0.50000000       0.005
  -0.33333333  0.50000000  0.50000000       0.005
  -0.16666667  0.50000000  0.50000000       0.005
   0.00000000 -0.33333333  0.50000000       0.005
   0.16666667 -0.33333333  0.50000000       0.005
   0.33333333 -0.33333333  0.50000000       0.005
   0.50000000 -0.33333333  0.50000000       0.005
  -0.33333333 -0.33333333  0.50000000       0.005
  -0.16666667 -0.33333333  0.50000000       0.005
   0.00000000 -0.16666667  0.50000000       0.005
   0.16666667 -0.16666667  0.50000000       0.005
   0.33333333 -0.16666667  0.50000000       0.005
   0.50000000 -0.16666667  0.50000000       0.005
  -0.33333333 -0.16666667  0.50000000       0.005
  -0.16666667 -0.16666667  0.50000000       0.005
   0.00000000  0.00000000 -0.33333333       0.005
   0.16666667  0.00000000 -0.33333333       0.005
   0.33333333  0.00000000 -0.33333333       0.005
   0.50000000  0.00000000 -0.33333333       0.005
  -0.33333333  0.00000000 -0.33333333       0.005
  -0.16666667  0.00000000 -0.33333333       0.005
   0.00000000  0.16666667 -0.33333333       0.005
   0.16666667  0.16666667 -0.33333333       0.005
   0.33333333  0.16666667 -0.33333333       0.005
   0.50000000  0.16666667 -0.33333333       0.005
  -0.33333333  0.16666667 -0.33333333       0.005
  -0.16666667  0.16666667 -0.33333333       0.005
   0.00000000  0.33333333 -0.33333333       0.005
   0.16666667  0.33333333 -0.33333333       0.005
   0.33333333  0.33333333 -0.33333333       0.005
   0.50000000  0.33333333 -0.33333333       0.005
  -0.33333333  0.33333333 -0.33333333       0.005
  -0.16666667  0.33333333 -0.33333333       0.005
   0.00000000  0.50000000 -0.33333333       0.005
   0.16666667  0.50000000 -0.33333333       0.005
   0.33333333  0.50000000 -0.33333333       0.005
   0.50000000  0.50000000 -0.33333333       0.005
  -0.33333333  0.50000000 -0.33333333       0.005
  -0.16666667  0.50000000 -0.33333333       0.005
   0.00000000 -0.33333333 -0.33333333       0.005
   0.16666667 -0.33333333 -0.33333333       0.005
   0.33333333 -0.33333333 -0.33333333       0.005
   0.50000000 -0.33333333 -0.33333333       0.005
  -0.33333333 -0.33333333 -0.33333333       0.005
  -0.16666667 -0.33333333 -0.33333333       0.005
   0.00000000 -0.16666667 -0.33333333       0.005
   0.16666667 -0.16666667 -0.33333333       0.005
   0.33333333 -0.16666667 -0.33333333       0.005
   0.50000000 -0.16666667 -0.33333333       0.005
  -0.33333333 -0.16666667 -0.33333333       0.005
  -0.16666667 -0.16666667 -0.33333333       0.005
   0.00000000  0.00000000 -0.16666667       0.005
   0.16666667  0.00000000 -0.16666667       0.005
   0.33333333  0.00000000 -0.16666667       0.005
   0.50000000  0.00000000 -0.16666667       0.005
  -0.33333333  0.00000000 -0.16666667       0.005
  -0.16666667  0.00000000 -0.16666667       0.005
   0.00000000  0.16666667 -0.16666667       0.005
   0.16666667  0.16666667 -0.16666667       0.005
   0.33333333  0.16666667 -0.16666667       0.005
   0.50000000  0.16666667 -0.16666667       0.005
  -0.33333333  0.16666667 -0.16666667       0.005
  -0.16666667  0.16666667 -0.16666667       0.005
   0.00000000  0.33333333 -0.16666667       0.005
   0.16666667  0.33333333 -0.16666667       0.005
   0.33333333  0.33333333 -0.16666667       0.005
   0.50000000  0.33333333 -0.16666667       0.005
  -0.33333333  0.33333333 -0.16666667       0.005
  -0.16666667  0.33333333 -0.16666667       0.005
   0.00000000  0.50000000 -0.16666667       0.005
   0.16666667  0.50000000 -0.16666667       0.005
   0.33333333  0.50000000 -0.16666667       0.005
   0.50000000  0.50000000 -0.16666667       0.005
  -0.33333333  0.50000000 -0.16666667       0.005
  -0.16666667  0.50000000 -0.16666667       0.005
   0.00000000 -0.33333333 -0.16666667       0.005
   0.16666667 -0.33333333 -0.16666667       0.005
   0.33333333 -0.33333333 -0.16666667       0.005
   0.50000000 -0.33333333 -0.16666667       0.005
  -0.33333333 -0.33333333 -0.16666667       0.005
  -0.16666667 -0.33333333 -0.16666667       0.005
   0.00000000 -0.16666667 -0.16666667       0.005
   0.16666667 -0.16666667 -0.16666667       0.005
   0.33333333 -0.16666667 -0.16666667       0.005
   0.50000000 -0.16666667 -0.16666667       0.005
  -0.33333333 -0.16666667 -0.16666667       0.005
  -0.16666667 -0.16666667 -0.16666667       0.005
 
 position of ions in fractional coordinates (direct lattice) 
   0.00000000  0.00000000  0.00000000
   0.25000000  0.25000000  0.25000000
 
 position of ions in cartesian coordinates  (Angst):
   0.00000000  0.00000000  0.00000000
   1.62067500  1.62067500 -1.62067500
 
 Euler angles ALPHA=     0.0000000  BETA=     0.0000000

 transformation matrix from SAXIS to cartesian coordinates
 ---------------------------------------------------------
     1.0000000 m_x     0.0000000 m_y     0.0000000 m_z
     0.0000000 m_x     1.0000000 m_y     0.0000000 m_z
     0.0000000 m_x     0.0000000 m_y     1.0000000 m_z

 transformation matrix from cartesian coordinates to SAXIS
 ---------------------------------------------------------
     1.0000000 m_x     0.0000000 m_y     0.0000000 m_z
     0.0000000 m_x     1.0000000 m_y     0.0000000 m_z
     0.0000000 m_x     0.0000000 m_y     1.0000000 m_z




--------------------------------------------------------------------------------------------------------


 k-point  1 :   0.0000 0.0000 0.0000  plane waves:    3518
 k-point  2 :   0.1667 0.0000 0.0000  plane waves:    3494
 k-point  3 :   0.3333 0.0000 0.0000  plane waves:    3460
 k-point  4 :   0.5000 0.0000 0.0000  plane waves:    3436
 k-point  5 :  -0.3333 0.0000 0.0000  plane waves:    3460
 k-point  6 :  -0.1667 0.0000 0.0000  plane waves:    3494
 k-point  7 :   0.0000 0.1667 0.0000  plane waves:    3494
 k-point  8 :   0.1667 0.1667 0.0000  plane waves:    3472
 k-point  9 :   0.3333 0.1667 0.0000  plane waves:    3458
 k-point 10 :   0.5000 0.1667 0.0000  plane waves:    3478
 k-point 11 :  -0.3333 0.1667 0.0000  plane waves:    3464
 k-point 12 :  -0.1667 0.1667 0.0000  plane waves:    3470
 k-point 13 :   0.0000 0.3333 0.0000  plane waves:    3460
 k-point 14 :   0.1667 0.3333 0.0000  plane waves:    3458
 k-point 15 :   0.3333 0.3333 0.0000  plane waves:    3456
 k-point 16 :   0.5000 0.3333 0.0000  plane waves:    3446
 k-point 17 :  -0.3333 0.3333 0.0000  plane waves:    3452
 k-point 18 :  -0.1667 0.3333 0.0000  plane waves:    3464
 k-point 19 :   0.0000 0.5000 0.0000  plane waves:    3436
 k-point 20 :   0.1667 0.5000 0.0000  plane waves:    3478
 k-point 21 :   0.3333 0.5000 0.0000  plane waves:    3446
 k-point 22 :   0.5000 0.5000 0.0000  plane waves:    3448
 k-point 23 :  -0.3333 0.5000 0.0000  plane waves:    3446
 k-point 24 :  -0.1667 0.5000 0.0000  plane waves:    3478
 k-point 25 :   0.0000-0.3333 0.0000  plane waves:    3460
 k-point 26 :   0.1667-0.3333 0.0000  plane waves:    3464
 k-point 27 :   0.3333-0.3333 0.0000  plane waves:    3452
 k-point 28 :   0.5000-0.3333 0.0000  plane waves:    3446
 k-point 29 :  -0.3333-0.3333 0.0000  plane waves:    3456
 k-point 30 :  -0.1667-0.3333 0.0000  plane waves:    3458
 k-point 31 :   0.0000-0.1667 0.0000  plane waves:    3494
 k-point 32 :   0.1667-0.1667 0.0000  plane waves:    3470
 k-point 33 :   0.3333-0.1667 0.0000  plane waves:    3464
 k-point 34 :   0.5000-0.1667 0.0000  plane waves:    3478
 k-point 35 :  -0.3333-0.1667 0.0000  plane waves:    3458
 k-point 36 :  -0.1667-0.1667 0.0000  plane waves:    3472
 k-point 37 :   0.0000 0.0000 0.1667  plane waves:    3494
 k-point 38 :   0.1667 0.0000 0.1667  plane waves:    3472
 k-point 39 :   0.3333 0.0000 0.1667  plane waves:    3458
 k-point 40 :   0.5000 0.0000 0.1667  plane waves:    3478
 k-point 41 :  -0.3333 0.0000 0.1667  plane waves:    3464
 k-point 42 :  -0.1667 0.0000 0.1667  plane waves:    3470
 k-point 43 :   0.0000 0.1667 0.1667  plane waves:    3472
 k-point 44 :   0.1667 0.1667 0.1667  plane waves:    3494
 k-point 45 :   0.3333 0.1667 0.1667  plane waves:    3470
 k-point 46 :   0.5000 0.1667 0.1667  plane waves:    3464
 k-point 47 :  -0.3333 0.1667 0.1667  plane waves:    3478
 k-point 48 :  -0.1667 0.1667 0.1667  plane waves:    3458
 k-point 49 :   0.0000 0.3333 0.1667  plane waves:    3458
 k-point 50 :   0.1667 0.3333 0.1667  plane waves:    3470
 k-point 51 :   0.3333 0.3333 0.1667  plane waves:    3458
 k-point 52 :   0.5000 0.3333 0.1667  plane waves:    3448
 k-point 53 :  -0.3333 0.3333 0.1667  plane waves:    3452
 k-point 54 :  -0.1667 0.3333 0.1667  plane waves:    3448
 k-point 55 :   0.0000 0.5000 0.1667  plane waves:    3478
 k-point 56 :   0.1667 0.5000 0.1667  plane waves:    3464
 k-point 57 :   0.3333 0.5000 0.1667  plane waves:    3448
 k-point 58 :   0.5000 0.5000 0.1667  plane waves:    3446
 k-point 59 :  -0.3333 0.5000 0.1667  plane waves:    3444
 k-point 60 :  -0.1667 0.5000 0.1667  plane waves:    3452
 k-point 61 :   0.0000-0.3333 0.1667  plane waves:    3464
 k-point 62 :   0.1667-0.3333 0.1667  plane waves:    3478
 k-point 63 :   0.3333-0.3333 0.1667  plane waves:    3452
 k-point 64 :   0.5000-0.3333 0.1667  plane waves:    3444
 k-point 65 :  -0.3333-0.3333 0.1667  plane waves:    3446
 k-point 66 :  -0.1667-0.3333 0.1667  plane waves:    3448
 k-point 67 :   0.0000-0.1667 0.1667  plane waves:    3470
 k-point 68 :   0.1667-0.1667 0.1667  plane waves:    3458
 k-point 69 :   0.3333-0.1667 0.1667  plane waves:    3448
 k-point 70 :   0.5000-0.1667 0.1667  plane waves:    3452
 k-point 71 :  -0.3333-0.1667 0.1667  plane waves:    3448
 k-point 72 :  -0.1667-0.1667 0.1667  plane waves:    3458
 k-point 73 :   0.0000 0.0000 0.3333  plane waves:    3460
 k-point 74 :   0.1667 0.0000 0.3333  plane waves:    3458
 k-point 75 :   0.3333 0.0000 0.3333  plane waves:    3456
 k-point 76 :   0.5000 0.0000 0.3333  plane waves:    3446
 k-point 77 :  -0.3333 0.0000 0.3333  plane waves:    3452
 k-point 78 :  -0.1667 0.0000 0.3333  plane waves:    3464
 k-point 79 :   0.0000 0.1667 0.3333  plane waves:    3458
 k-point 80 :   0.1667 0.1667 0.3333  plane waves:    3470
 k-point 81 :   0.3333 0.1667 0.3333  plane waves:    3458
 k-point 82 :   0.5000 0.1667 0.3333  plane waves:    3448
 k-point 83 :  -0.3333 0.1667 0.3333  plane waves:    3452
 k-point 84 :  -0.1667 0.1667 0.3333  plane waves:    3448
 k-point 85 :   0.0000 0.3333 0.3333  plane waves:    3456
 k-point 86 :   0.1667 0.3333 0.3333  plane waves:    3458
 k-point 87 :   0.3333 0.3333 0.3333  plane waves:    3460
 k-point 88 :   0.5000 0.3333 0.3333  plane waves:    3464
 k-point 89 :  -0.3333 0.3333 0.3333  plane waves:    3452
 k-point 90 :  -0.1667 0.3333 0.3333  plane waves:    3446
 k-point 91 :   0.0000 0.5000 0.3333  plane waves:    3446
 k-point 92 :   0.1667 0.5000 0.3333  plane waves:    3448
 k-point 93 :   0.3333 0.5000 0.3333  plane waves:    3464
 k-point 94 :   0.5000 0.5000 0.3333  plane waves:    3478
 k-point 95 :  -0.3333 0.5000 0.3333  plane waves:    3452
 k-point 96 :  -0.1667 0.5000 0.3333  plane waves:    3444
 k-point 97 :   0.0000-0.3333 0.3333  plane waves:    3452
 k-point 98 :   0.1667-0.3333 0.3333  plane waves:    3452
 k-point 99 :   0.3333-0.3333 0.3333  plane waves:    3452
 k-point ** :   0.5000-0.3333 0.3333  plane waves:    3452
 k-point ** :  -0.3333-0.3333 0.3333  plane waves:    3452
 k-point ** :  -0.1667-0.3333 0.3333  plane waves:    3452
 k-point ** :   0.0000-0.1667 0.3333  plane waves:    3464
 k-point ** :   0.1667-0.1667 0.3333  plane waves:    3448
 k-point ** :   0.3333-0.1667 0.3333  plane waves:    3446
 k-point ** :   0.5000-0.1667 0.3333  plane waves:    3444
 k-point ** :  -0.3333-0.1667 0.3333  plane waves:    3452
 k-point ** :  -0.1667-0.1667 0.3333  plane waves:    3478
 k-point ** :   0.0000 0.0000 0.5000  plane waves:    3436
 k-point ** :   0.1667 0.0000 0.5000  plane waves:    3478
 k-point ** :   0.3333 0.0000 0.5000  plane waves:    3446
 k-point ** :   0.5000 0.0000 0.5000  plane waves:    3448
 k-point ** :  -0.3333 0.0000 0.5000  plane waves:    3446
 k-point ** :  -0.1667 0.0000 0.5000  plane waves:    3478
 k-point ** :   0.0000 0.1667 0.5000  plane waves:    3478
 k-point ** :   0.1667 0.1667 0.5000  plane waves:    3464
 k-point ** :   0.3333 0.1667 0.5000  plane waves:    3448
 k-point ** :   0.5000 0.1667 0.5000  plane waves:    3446
 k-point ** :  -0.3333 0.1667 0.5000  plane waves:    3444
 k-point ** :  -0.1667 0.1667 0.5000  plane waves:    3452
 k-point ** :   0.0000 0.3333 0.5000  plane waves:    3446
 k-point ** :   0.1667 0.3333 0.5000  plane waves:    3448
 k-point ** :   0.3333 0.3333 0.5000  plane waves:    3464
 k-point ** :   0.5000 0.3333 0.5000  plane waves:    3478
 k-point ** :  -0.3333 0.3333 0.5000  plane waves:    3452
 k-point ** :  -0.1667 0.3333 0.5000  plane waves:    3444
 k-point ** :   0.0000 0.5000 0.5000  plane waves:    3448
 k-point ** :   0.1667 0.5000 0.5000  plane waves:    3446
 k-point ** :   0.3333 0.5000 0.5000  plane waves:    3478
 k-point ** :   0.5000 0.5000 0.5000  plane waves:    3436
 k-point ** :  -0.3333 0.5000 0.5000  plane waves:    3478
 k-point ** :  -0.1667 0.5000 0.5000  plane waves:    3446
 k-point ** :   0.0000-0.3333 0.5000  plane waves:    3446
 k-point ** :   0.1667-0.3333 0.5000  plane waves:    3444
 k-point ** :   0.3333-0.3333 0.5000  plane waves:    3452
 k-point ** :   0.5000-0.3333 0.5000  plane waves:    3478
 k-point ** :  -0.3333-0.3333 0.5000  plane waves:    3464
 k-point ** :  -0.1667-0.3333 0.5000  plane waves:    3448
 k-point ** :   0.0000-0.1667 0.5000  plane waves:    3478
 k-point ** :   0.1667-0.1667 0.5000  plane waves:    3452
 k-point ** :   0.3333-0.1667 0.5000  plane waves:    3444
 k-point ** :   0.5000-0.1667 0.5000  plane waves:    3446
 k-point ** :  -0.3333-0.1667 0.5000  plane waves:    3448
 k-point ** :  -0.1667-0.1667 0.5000  plane waves:    3464
 k-point ** :   0.0000 0.0000-0.3333  plane waves:    3460
 k-point ** :   0.1667 0.0000-0.3333  plane waves:    3464
 k-point ** :   0.3333 0.0000-0.3333  plane waves:    3452
 k-point ** :   0.5000 0.0000-0.3333  plane waves:    3446
 k-point ** :  -0.3333 0.0000-0.3333  plane waves:    3456
 k-point ** :  -0.1667 0.0000-0.3333  plane waves:    3458
 k-point ** :   0.0000 0.1667-0.3333  plane waves:    3464
 k-point ** :   0.1667 0.1667-0.3333  plane waves:    3478
 k-point ** :   0.3333 0.1667-0.3333  plane waves:    3452
 k-point ** :   0.5000 0.1667-0.3333  plane waves:    3444
 k-point ** :  -0.3333 0.1667-0.3333  plane waves:    3446
 k-point ** :  -0.1667 0.1667-0.3333  plane waves:    3448
 k-point ** :   0.0000 0.3333-0.3333  plane waves:    3452
 k-point ** :   0.1667 0.3333-0.3333  plane waves:    3452
 k-point ** :   0.3333 0.3333-0.3333  plane waves:    3452
 k-point ** :   0.5000 0.3333-0.3333  plane waves:    3452
 k-point ** :  -0.3333 0.3333-0.3333  plane waves:    3452
 k-point ** :  -0.1667 0.3333-0.3333  plane waves:    3452
 k-point ** :   0.0000 0.5000-0.3333  plane waves:    3446
 k-point ** :   0.1667 0.5000-0.3333  plane waves:    3444
 k-point ** :   0.3333 0.5000-0.3333  plane waves:    3452
 k-point ** :   0.5000 0.5000-0.3333  plane waves:    3478
 k-point ** :  -0.3333 0.5000-0.3333  plane waves:    3464
 k-point ** :  -0.1667 0.5000-0.3333  plane waves:    3448
 k-point ** :   0.0000-0.3333-0.3333  plane waves:    3456
 k-point ** :   0.1667-0.3333-0.3333  plane waves:    3446
 k-point ** :   0.3333-0.3333-0.3333  plane waves:    3452
 k-point ** :   0.5000-0.3333-0.3333  plane waves:    3464
 k-point ** :  -0.3333-0.3333-0.3333  plane waves:    3460
 k-point ** :  -0.1667-0.3333-0.3333  plane waves:    3458
 k-point ** :   0.0000-0.1667-0.3333  plane waves:    3458
 k-point ** :   0.1667-0.1667-0.3333  plane waves:    3448
 k-point ** :   0.3333-0.1667-0.3333  plane waves:    3452
 k-point ** :   0.5000-0.1667-0.3333  plane waves:    3448
 k-point ** :  -0.3333-0.1667-0.3333  plane waves:    3458
 k-point ** :  -0.1667-0.1667-0.3333  plane waves:    3470
 k-point ** :   0.0000 0.0000-0.1667  plane waves:    3494
 k-point ** :   0.1667 0.0000-0.1667  plane waves:    3470
 k-point ** :   0.3333 0.0000-0.1667  plane waves:    3464
 k-point ** :   0.5000 0.0000-0.1667  plane waves:    3478
 k-point ** :  -0.3333 0.0000-0.1667  plane waves:    3458
 k-point ** :  -0.1667 0.0000-0.1667  plane waves:    3472
 k-point ** :   0.0000 0.1667-0.1667  plane waves:    3470
 k-point ** :   0.1667 0.1667-0.1667  plane waves:    3458
 k-point ** :   0.3333 0.1667-0.1667  plane waves:    3448
 k-point ** :   0.5000 0.1667-0.1667  plane waves:    3452
 k-point ** :  -0.3333 0.1667-0.1667  plane waves:    3448
 k-point ** :  -0.1667 0.1667-0.1667  plane waves:    3458
 k-point ** :   0.0000 0.3333-0.1667  plane waves:    3464
 k-point ** :   0.1667 0.3333-0.1667  plane waves:    3448
 k-point ** :   0.3333 0.3333-0.1667  plane waves:    3446
 k-point ** :   0.5000 0.3333-0.1667  plane waves:    3444
 k-point ** :  -0.3333 0.3333-0.1667  plane waves:    3452
 k-point ** :  -0.1667 0.3333-0.1667  plane waves:    3478
 k-point ** :   0.0000 0.5000-0.1667  plane waves:    3478
 k-point ** :   0.1667 0.5000-0.1667  plane waves:    3452
 k-point ** :   0.3333 0.5000-0.1667  plane waves:    3444
 k-point ** :   0.5000 0.5000-0.1667  plane waves:    3446
 k-point ** :  -0.3333 0.5000-0.1667  plane waves:    3448
 k-point ** :  -0.1667 0.5000-0.1667  plane waves:    3464
 k-point ** :   0.0000-0.3333-0.1667  plane waves:    3458
 k-point ** :   0.1667-0.3333-0.1667  plane waves:    3448
 k-point ** :   0.3333-0.3333-0.1667  plane waves:    3452
 k-point ** :   0.5000-0.3333-0.1667  plane waves:    3448
 k-point ** :  -0.3333-0.3333-0.1667  plane waves:    3458
 k-point ** :  -0.1667-0.3333-0.1667  plane waves:    3470
 k-point ** :   0.0000-0.1667-0.1667  plane waves:    3472
 k-point ** :   0.1667-0.1667-0.1667  plane waves:    3458
 k-point ** :   0.3333-0.1667-0.1667  plane waves:    3478
 k-point ** :   0.5000-0.1667-0.1667  plane waves:    3464
 k-point ** :  -0.3333-0.1667-0.1667  plane waves:    3470
 k-point ** :  -0.1667-0.1667-0.1667  plane waves:    3494

 maximum and minimum number of plane-waves per node :       170      114

 maximum number of plane-waves:      3518
 maximum index in each direction: 
   IXMAX=    8   IYMAX=    8   IZMAX=    8
   IXMIN=   -8   IYMIN=   -8   IZMIN=   -8

 NGX is ok and might be reduce to  34
 NGY is ok and might be reduce to  34
 NGZ is ok and might be reduce to  34

 parallel 3D FFT for wavefunctions:
    minimum data exchange during FFTs selected (reduces bandwidth)
 parallel 3D FFT for charge:
    minimum data exchange during FFTs selected (reduces bandwidth)


 total amount of memory used by VASP on root node    59466. kBytes
========================================================================

   base      :      30000. kBytes
   nonl-proj :       5041. kBytes
   fftplans  :       1139. kBytes
   grid      :       4064. kBytes
   one-center:         62. kBytes
   wavefun   :      19160. kBytes
 
     INWAV:  cpu time    0.0000: real time    0.0000
 Broyden mixing: mesh for mixing (old mesh)
   NGX = 17   NGY = 17   NGZ = 17
  (NGX  = 72   NGY  = 72   NGZ  = 72)
  gives a total of   4913 points

 initial charge density was supplied:
 charge density of overlapping atoms calculated
 number of electron      18.0000000 magnetization       2.0000000      2.0000000      2.0000000
 keeping initial charge density in first step


--------------------------------------------------------------------------------------------------------


 Maximum index for augmentation-charges         1676 (set IRDMAX)


--------------------------------------------------------------------------------------------------------


 First call to EWALD:  gamma=   0.434
 Maximum number of real-space cells 3x 3x 3
 Maximum number of reciprocal cells 3x 3x 3

 FEWALD executed in parallel
    FEWALD:  cpu time    0.0000: real time    0.0014


----------------------------------------- Iteration    1(   1)  ---------------------------------------


    POTLOK:  cpu time    0.0360: real time    0.0397
    SETDIJ:  cpu time    0.0120: real time    0.0107
     EDDAV:  cpu time    6.5884: real time    6.5935
       DOS:  cpu time    0.0080: real time    0.0078
    --------------------------------------------
      LOOP:  cpu time    6.6484: real time    6.6720

 eigenvalue-minimisations  : 12136
 total energy-change (2. order) : 0.1102193E+03  (-0.7938668E+03)
 number of electron      18.0000000 magnetization       2.0000000      2.0000000      2.0000000
 augmentation part       18.0000000 magnetization       2.0000000      2.0000000      2.0000000

 Free energy of the ion-electron system (eV)
  ---------------------------------------------------
  alpha Z        PSCENC =        50.17222034
  Ewald energy   TEWEN  =     -1044.83138452
  -Hartree energ DENC   =      -510.12304479
  -exchange      EXHF   =         0.00000000
  -V(xc)+E(xc)   XCENC  =       -22.14237255
  PAW double counting   =      1403.96929583    -1331.69227184
  entropy T*S    EENTRO =        -0.00000906
  eigenvalues    EBANDS =        48.42028955
  atomic energy  EATOM  =      1516.44661579
  Solvation  Ediel_sol  =         0.00000000
  ---------------------------------------------------
  free energy    TOTEN  =       110.21933875 eV

  energy without entropy =      110.21934781  energy(sigma->0) =      110.21934328


--------------------------------------------------------------------------------------------------------




----------------------------------------- Iteration    1(   2)  ---------------------------------------


     EDDAV:  cpu time    6.9404: real time    6.9481
       DOS:  cpu time    0.0000: real time    0.0031
    --------------------------------------------
      LOOP:  cpu time    6.9444: real time    6.9563

 eigenvalue-minimisations  : 13116
 total energy-change (2. order) :-0.1091493E+03  (-0.1052664E+03)
 number of electron      18.0000000 magnetization       2.0000000      2.0000000      2.0000000
 augmentation part       18.0000000 magnetization       2.0000000      2.0000000      2.0000000

 Free energy of the ion-electron system (eV)
[...]
  0.003   0.000  -0.000   0.000  -0.000   0.000  -0.000   0.000   0.000   0.000   0.002   0.000  -0.000   0.000  -0.000   0.000
 -0.000   0.000   0.003   0.000  -0.000   0.000   0.000   0.000   0.000   0.000  -0.000   0.000   0.002   0.000  -0.000   0.000
 total augmentation occupancy for first ion, spin component:           1
  4.242  -0.000   0.000  -0.000  -0.000  -2.132   0.000  -0.000   0.000   0.000   0.000   0.000  -0.000   0.534  -0.000   0.000
 -0.000   4.242  -0.000  -0.000   0.000   0.000  -2.132   0.000   0.000  -0.000   0.000  -0.000  -0.000  -0.000   0.534   0.000
  0.000  -0.000   2.679  -0.000  -0.000  -0.000   0.000  -0.630   0.000   0.000  -0.000   0.000   0.000   0.000   0.000  -0.000
 -0.000  -0.000  -0.000   4.242  -0.000   0.000   0.000   0.000  -2.132   0.000   0.000  -0.000   0.534  -0.000  -0.000  -0.079
 -0.000   0.000  -0.000  -0.000   2.679   0.000  -0.000   0.000   0.000  -0.630  -0.000   0.000   0.000  -0.000  -0.000  -0.000
 -2.132   0.000  -0.000   0.000   0.000   2.018  -0.000   0.000  -0.000  -0.000  -0.000   0.000   0.000  -0.511   0.000  -0.000
  0.000  -2.132   0.000   0.000  -0.000  -0.000   2.018   0.000   0.000  -0.000   0.000   0.000   0.000   0.000  -0.511  -0.000
 -0.000   0.000  -0.630   0.000   0.000   0.000   0.000   0.573   0.000  -0.000   0.000   0.000  -0.000  -0.000  -0.000   0.000
  0.000   0.000   0.000  -2.132   0.000  -0.000   0.000   0.000   2.018   0.000   0.000   0.000  -0.511   0.000   0.000   0.090
  0.000  -0.000   0.000   0.000  -0.630  -0.000  -0.000  -0.000   0.000   0.573   0.000  -0.000  -0.000   0.000   0.000   0.000
  0.000   0.000  -0.000   0.000  -0.000  -0.000   0.000   0.000   0.000   0.000   2.986  -0.780  -0.000  -0.000  -0.000   0.000
  0.000  -0.000   0.000  -0.000   0.000   0.000   0.000   0.000   0.000  -0.000  -0.780   0.242   0.000   0.000   0.000  -0.000
 -0.000  -0.000   0.000   0.534   0.000   0.000   0.000  -0.000  -0.511  -0.000  -0.000   0.000   0.211   0.000  -0.000  -0.037
  0.534  -0.000   0.000  -0.000  -0.000  -0.511   0.000  -0.000   0.000   0.000  -0.000   0.000   0.000   0.211   0.000   0.000
 -0.000   0.534   0.000  -0.000  -0.000   0.000  -0.511  -0.000   0.000   0.000  -0.000   0.000  -0.000   0.000   0.211   0.000
  0.000   0.000  -0.000  -0.079  -0.000  -0.000  -0.000   0.000   0.090   0.000   0.000  -0.000  -0.037   0.000   0.000   0.009
 -0.079   0.000  -0.000   0.000   0.000   0.090  -0.000  -0.000  -0.000  -0.000   0.000  -0.000   0.000  -0.037   0.000  -0.000
  0.000  -0.079  -0.000   0.000   0.000  -0.000   0.090   0.000  -0.000  -0.000   0.000  -0.000   0.000   0.000  -0.037   0.000
 total augmentation occupancy for first ion, spin component:           2
  0.000   0.000  -0.000  -0.000  -0.000  -0.000  -0.000   0.000   0.000   0.000   0.000  -0.000  -0.000   0.000   0.000   0.000
  0.000   0.000  -0.000   0.000   0.000  -0.000  -0.000   0.000  -0.000  -0.000   0.000  -0.000   0.000   0.000   0.000   0.000
 -0.000  -0.000   0.000   0.000  -0.000   0.000   0.000  -0.000  -0.000   0.000  -0.000   0.000   0.000   0.000  -0.000  -0.000
 -0.000   0.000   0.000   0.000  -0.000   0.000  -0.000  -0.000  -0.000   0.000   0.000  -0.000   0.000  -0.000  -0.000  -0.000
 -0.000   0.000  -0.000  -0.000   0.000   0.000  -0.000   0.000   0.000  -0.000   0.000  -0.000  -0.000  -0.000   0.000  -0.000
 -0.000  -0.000   0.000   0.000   0.000   0.000   0.000   0.000  -0.000  -0.000   0.000   0.000   0.000  -0.000  -0.000  -0.000
 -0.000  -0.000   0.000  -0.000  -0.000   0.000   0.000  -0.000   0.000   0.000  -0.000   0.000  -0.000  -0.000  -0.000  -0.000
  0.000   0.000  -0.000  -0.000   0.000   0.000  -0.000   0.000   0.000  -0.000   0.000  -0.000  -0.000  -0.000   0.000   0.000
  0.000  -0.000  -0.000  -0.000   0.000  -0.000   0.000   0.000   0.000  -0.000   0.000   0.000  -0.000   0.000   0.000   0.000
  0.000  -0.000   0.000   0.000  -0.000  -0.000   0.000  -0.000  -0.000   0.000  -0.000   0.000   0.000   0.000  -0.000  -0.000
  0.000   0.000  -0.000   0.000   0.000   0.000  -0.000   0.000   0.000  -0.000   0.000  -0.000  -0.000  -0.000   0.000  -0.000
 -0.000  -0.000   0.000  -0.000  -0.000   0.000   0.000  -0.000   0.000   0.000  -0.000   0.000   0.000   0.000   0.000   0.000
 -0.000   0.000   0.000   0.000  -0.000   0.000  -0.000  -0.000  -0.000   0.000  -0.000   0.000   0.000  -0.000  -0.000  -0.000
  0.000   0.000   0.000  -0.000  -0.000  -0.000  -0.000  -0.000   0.000   0.000  -0.000   0.000  -0.000   0.000  -0.000   0.000
  0.000   0.000  -0.000  -0.000   0.000  -0.000  -0.000   0.000   0.000  -0.000   0.000   0.000  -0.000  -0.000   0.000   0.000
  0.000   0.000  -0.000  -0.000  -0.000  -0.000  -0.000   0.000   0.000  -0.000  -0.000   0.000  -0.000   0.000   0.000   0.000
 -0.000   0.000   0.000   0.000   0.000   0.000  -0.000   0.000  -0.000  -0.000  -0.000   0.000   0.000  -0.000   0.000  -0.000
 -0.000  -0.000   0.000  -0.000  -0.000   0.000   0.000   0.000   0.000   0.000  -0.000   0.000  -0.000  -0.000  -0.000   0.000
 total augmentation occupancy for first ion, spin component:           3
  0.000   0.000  -0.000   0.000   0.000  -0.000  -0.000   0.000  -0.000  -0.000   0.000  -0.000   0.000   0.000  -0.000  -0.000
  0.000   0.000   0.000   0.000   0.000  -0.000  -0.000  -0.000  -0.000  -0.000   0.000  -0.000   0.000  -0.000   0.000  -0.000
 -0.000   0.000   0.000  -0.000   0.000   0.000  -0.000  -0.000   0.000  -0.000  -0.000   0.000  -0.000   0.000   0.000   0.000
  0.000   0.000  -0.000   0.000  -0.000  -0.000  -0.000   0.000  -0.000   0.000   0.000  -0.000   0.000   0.000   0.000  -0.000
  0.000   0.000   0.000  -0.000   0.000  -0.000  -0.000  -0.000   0.000  -0.000  -0.000   0.000  -0.000   0.000   0.000   0.000
 -0.000  -0.000   0.000  -0.000  -0.000   0.000   0.000   0.000   0.000   0.000   0.000  -0.000  -0.000  -0.000   0.000   0.000
 -0.000  -0.000  -0.000  -0.000  -0.000   0.000   0.000   0.000   0.000   0.000   0.000   0.000  -0.000   0.000  -0.000   0.000
  0.000  -0.000  -0.000   0.000  -0.000   0.000   0.000   0.000  -0.000   0.000   0.000  -0.000   0.000  -0.000  -0.000   0.000
 -0.000  -0.000   0.000  -0.000   0.000   0.000   0.000  -0.000   0.000  -0.000  -0.000   0.000  -0.000  -0.000  -0.000   0.000
 -0.000  -0.000  -0.000   0.000  -0.000   0.000   0.000   0.000  -0.000   0.000   0.000  -0.000   0.000  -0.000  -0.000  -0.000
  0.000   0.000  -0.000   0.000  -0.000   0.000   0.000   0.000  -0.000   0.000   0.000  -0.000  -0.000  -0.000  -0.000  -0.000
 -0.000  -0.000   0.000  -0.000   0.000  -0.000   0.000  -0.000   0.000  -0.000  -0.000   0.000   0.000   0.000   0.000   0.000
  0.000   0.000  -0.000   0.000  -0.000  -0.000  -0.000   0.000  -0.000   0.000  -0.000   0.000   0.000   0.000   0.000  -0.000
  0.000  -0.000   0.000   0.000   0.000  -0.000   0.000  -0.000  -0.000  -0.000  -0.000   0.000   0.000   0.000  -0.000  -0.000
 -0.000   0.000   0.000   0.000   0.000   0.000  -0.000  -0.000  -0.000  -0.000  -0.000   0.000   0.000  -0.000   0.000  -0.000
 -0.000  -0.000   0.000  -0.000   0.000   0.000   0.000   0.000   0.000  -0.000  -0.000   0.000  -0.000  -0.000  -0.000   0.000
 -0.000   0.000   0.000   0.000  -0.000   0.000  -0.000   0.000  -0.000   0.000  -0.000   0.000   0.000  -0.000   0.000   0.000
  0.000  -0.000  -0.000   0.000   0.000  -0.000   0.000   0.000  -0.000   0.000  -0.000   0.000   0.000   0.000  -0.000   0.000
 total augmentation occupancy for first ion, spin component:           4
  0.000   0.000   0.000   0.000  -0.000  -0.000  -0.000  -0.000  -0.000   0.000   0.000  -0.000   0.000   0.000   0.000   0.000
  0.000   0.000  -0.000  -0.000  -0.000  -0.000  -0.000   0.000  -0.000   0.000   0.000  -0.000  -0.000   0.000   0.000   0.000
  0.000  -0.000   0.000  -0.000   0.000  -0.000   0.000  -0.000   0.000  -0.000   0.000  -0.000  -0.000   0.000  -0.000   0.000
  0.000  -0.000  -0.000   0.000   0.000  -0.000  -0.000   0.000  -0.000  -0.000   0.000  -0.000   0.000  -0.000  -0.000  -0.000
 -0.000  -0.000   0.000   0.000   0.000   0.000   0.000  -0.000  -0.000  -0.000   0.000   0.000   0.000  -0.000  -0.000  -0.000
 -0.000  -0.000  -0.000  -0.000   0.000   0.000   0.000   0.000   0.000  -0.000  -0.000   0.000  -0.000  -0.000  -0.000  -0.000
 -0.000  -0.000   0.000  -0.000   0.000   0.000   0.000  -0.000   0.000  -0.000   0.000   0.000   0.000  -0.000  -0.000  -0.000
 -0.000   0.000  -0.000   0.000  -0.000   0.000  -0.000   0.000  -0.000   0.000  -0.000   0.000   0.000  -0.000   0.000  -0.000
 -0.000  -0.000   0.000  -0.000  -0.000   0.000   0.000  -0.000   0.000   0.000   0.000  -0.000  -0.000  -0.000   0.000   0.000
  0.000   0.000  -0.000  -0.000  -0.000  -0.000  -0.000   0.000   0.000   0.000  -0.000   0.000  -0.000   0.000   0.000   0.000
  0.000   0.000   0.000   0.000   0.000  -0.000   0.000  -0.000   0.000  -0.000   0.000  -0.000  -0.000   0.000  -0.000  -0.000
 -0.000  -0.000  -0.000  -0.000   0.000   0.000   0.000   0.000  -0.000   0.000  -0.000   0.000   0.000  -0.000   0.000   0.000
  0.000  -0.000  -0.000   0.000   0.000  -0.000   0.000   0.000  -0.000  -0.000  -0.000   0.000   0.000   0.000  -0.000  -0.000
  0.000   0.000   0.000  -0.000  -0.000  -0.000  -0.000  -0.000  -0.000   0.000   0.000  -0.000   0.000   0.000   0.000   0.000
  0.000   0.000  -0.000  -0.000  -0.000  -0.000  -0.000   0.000   0.000   0.000  -0.000   0.000  -0.000   0.000   0.000   0.000
  0.000   0.000   0.000  -0.000  -0.000  -0.000  -0.000  -0.000   0.000   0.000  -0.000   0.000  -0.000   0.000   0.000   0.000
 -0.000  -0.000  -0.000  -0.000   0.000   0.000   0.000  -0.000   0.000  -0.000  -0.000   0.000  -0.000  -0.000  -0.000   0.000
  0.000  -0.000   0.000   0.000   0.000  -0.000   0.000  -0.000  -0.000  -0.000  -0.000   0.000   0.000   0.000  -0.000  -0.000


------------------------ aborting loop because EDIFF is reached ----------------------------------------


 


 total charge     
 
# of ion     s       p       d       tot
----------------------------------------
  1        0.471   0.318   9.531  10.320
  2        1.350   2.063   0.021   3.434
------------------------------------------------
tot        1.821   2.381   9.552  13.754
 


 magnetization (x)
 
# of ion     s       p       d       tot
----------------------------------------
  1       -0.000  -0.000   0.000   0.000
  2        0.000  -0.000   0.000  -0.000
------------------------------------------------
tot        0.000  -0.000   0.000  -0.000
 


 magnetization (y)
 
# of ion     s       p       d       tot
----------------------------------------
  1       -0.000  -0.000   0.000   0.000
  2        0.000  -0.000   0.000  -0.000
------------------------------------------------
tot        0.000  -0.000   0.000  -0.000
 


 magnetization (z)
 
# of ion     s       p       d       tot
----------------------------------------
  1       -0.000  -0.000   0.000   0.000
  2        0.000  -0.000   0.000  -0.000
------------------------------------------------
tot        0.000  -0.000   0.000  -0.000
 
    CHARGE:  cpu time    0.5400: real time    0.5418
    FORLOC:  cpu time    0.0000: real time    0.0011
    FORNL :  cpu time    0.5040: real time    0.5038
    STRESS:  cpu time    0.9401: real time    0.9394
    FORCOR:  cpu time    0.0360: real time    0.0381
    FORHAR:  cpu time    0.0040: real time    0.0041
    MIXING:  cpu time    0.0040: real time    0.0032
    OFIELD:  cpu time    0.0000: real time    0.0001

  FORCE on cell =-STRESS in cart. coord.  units (eV):
  Direction    XX          YY          ZZ          XY          YZ          ZX
  --------------------------------------------------------------------------------------
  Alpha Z    50.17222    50.17222    50.17222
  Ewald    -348.27726  -348.27726  -348.27726     0.00000     0.00000     0.00000
  Hartree   167.89221   167.89221   167.89221    -0.00000     0.00000     0.00000
  E(xc)     -87.42803   -87.42803   -87.42803    -0.00000     0.00000     0.00000
  Local     -17.79816   -17.79816   -17.79816     0.00002    -0.00002    -0.00002
  n-local    27.20323    27.20323    27.20323    -0.00000    -0.00000    -0.00000
  augment     6.36497     6.36497     6.36497    -0.00001     0.00001     0.00001
  Kinetic   203.03024   203.03024   203.03024     0.00000     0.00000    -0.00000
  Fock        0.00000     0.00000     0.00000     0.00000     0.00000     0.00000
  -------------------------------------------------------------------------------------
  Total       1.15941     1.15941     1.15941     0.00001    -0.00001    -0.00001
  in kB      27.27351    27.27351    27.27351     0.00018    -0.00016    -0.00016
  external pressure =       27.27 kB  Pullay stress =        0.00 kB


 VOLUME and BASIS-vectors are now :
 -----------------------------------------------------------------------------
  energy-cutoff  :      500.00
  volume of cell :       68.11
      direct lattice vectors                 reciprocal lattice vectors
     3.241350000  3.241350000  0.000000000     0.154256714  0.154256714  0.154256714
     3.241350000  0.000000000 -3.241350000     0.154256714 -0.154256714 -0.154256714
     0.000000000  3.241350000 -3.241350000    -0.154256714  0.154256714 -0.154256714

  length of vectors
     4.583961130  4.583961130  4.583961130     0.267180466  0.267180466  0.267180466


 FORCES acting on ions
    electron-ion (+dipol)            ewald-force                    non-local-force                 convergence-correction
 -----------------------------------------------------------------------------------------------
   0.146E-05 0.138E-05 0.164E-05   -.744E-14 -.454E-14 0.998E-14   -.175E-05 -.171E-05 -.797E-06   -.110E-05 -.106E-05 -.735E-06
   -.112E-05 -.125E-05 -.336E-06   0.759E-14 0.606E-14 -.102E-13   0.293E-05 0.294E-05 -.150E-05   0.118E-06 0.157E-06 0.286E-06
 -----------------------------------------------------------------------------------------------
   0.338E-06 0.126E-06 0.130E-05   0.152E-15 0.152E-14 -.238E-15   0.117E-05 0.124E-05 -.230E-05   -.980E-06 -.904E-06 -.449E-06
 
 
 POSITION                                       TOTAL-FORCE (eV/Angst)
 -----------------------------------------------------------------------------------
      0.00000      0.00000      0.00000        -0.000002     -0.000002      0.000001
      1.62068      1.62068     -1.62068         0.000002      0.000002     -0.000001
 -----------------------------------------------------------------------------------
    total drift:                                0.000001      0.000000     -0.000001


--------------------------------------------------------------------------------------------------------



  FREE ENERGIE OF THE ION-ELECTRON SYSTEM (eV)
  ---------------------------------------------------
  free  energy   TOTEN  =        -4.89777230 eV

  energy  without entropy=       -4.89777230  energy(sigma->0) =       -4.89777230
 


--------------------------------------------------------------------------------------------------------


    POTLOK:  cpu time    0.0520: real time    0.0495


--------------------------------------------------------------------------------------------------------




--------------------------------------------------------------------------------------------------------


 writing wavefunctions
     LOOP+:  cpu time  122.0436: real time  126.3892
    4ORBIT:  cpu time    0.0000: real time    0.0000

 Spin-Orbit-Coupling matrix elements

 Ion:    1  E_soc:     -0.0611297
 l=   1
     0.0000000    -0.0032134    -0.0032134
    -0.0032134     0.0000000    -0.0032134
    -0.0032134    -0.0032134     0.0000000
 l=   2
     0.0000000    -0.0014027     0.0000000    -0.0014027    -0.0055722
    -0.0014027     0.0000000    -0.0041791    -0.0014027    -0.0013930
     0.0000000    -0.0041791     0.0000000    -0.0041791     0.0000000
    -0.0014027    -0.0014027    -0.0041791     0.0000000    -0.0013930
    -0.0055722    -0.0013930     0.0000000    -0.0013930     0.0000000
 l=   3
     0.0000000     0.0000000     0.0000000     0.0000000     0.0000000     0.0000000     0.0000000
     0.0000000     0.0000000     0.0000000     0.0000000     0.0000000     0.0000000     0.0000000
     0.0000000     0.0000000     0.0000000     0.0000000     0.0000000     0.0000000     0.0000000
     0.0000000     0.0000000     0.0000000     0.0000000     0.0000000     0.0000000     0.0000000
     0.0000000     0.0000000     0.0000000     0.0000000     0.0000000     0.0000000     0.0000000
     0.0000000     0.0000000     0.0000000     0.0000000     0.0000000     0.0000000     0.0000000
     0.0000000     0.0000000     0.0000000     0.0000000     0.0000000     0.0000000     0.0000000

 Ion:    2  E_soc:     -0.1968859
 l=   1
     0.0000000    -0.0327396    -0.0327396
    -0.0327396     0.0000000    -0.0327396
    -0.0327396    -0.0327396     0.0000000
 l=   2
     0.0000000    -0.0000303     0.0000000    -0.0000303    -0.0000444
    -0.0000303     0.0000000    -0.0000333    -0.0000303    -0.0000111
     0.0000000    -0.0000333     0.0000000    -0.0000333     0.0000000
    -0.0000303    -0.0000303    -0.0000333     0.0000000    -0.0000111
    -0.0000444    -0.0000111     0.0000000    -0.0000111     0.0000000
 l=   3
     0.0000000     0.0000000     0.0000000     0.0000000     0.0000000     0.0000000     0.0000000
     0.0000000     0.0000000     0.0000000     0.0000000     0.0000000     0.0000000     0.0000000
     0.0000000     0.0000000     0.0000000     0.0000000     0.0000000     0.0000000     0.0000000
     0.0000000     0.0000000     0.0000000     0.0000000     0.0000000     0.0000000     0.0000000
     0.0000000     0.0000000     0.0000000     0.0000000     0.0000000     0.0000000     0.0000000
     0.0000000     0.0000000     0.0000000     0.0000000     0.0000000     0.0000000     0.0000000
     0.0000000     0.0000000     0.0000000     0.0000000     0.0000000     0.0000000     0.0000000
 


 total charge     
 
# of ion     s       p       d       tot
----------------------------------------
  1        0.471   0.318   9.531  10.320
  2        1.350   2.063   0.021   3.434
------------------------------------------------
tot        1.821   2.381   9.552  13.754
 


 magnetization (x)
 
# of ion     s       p       d       tot
----------------------------------------
  1       -0.000  -0.000   0.000   0.000
  2        0.000  -0.000   0.000  -0.000
------------------------------------------------
tot        0.000  -0.000   0.000  -0.000
 


 magnetization (y)
 
# of ion     s       p       d       tot
----------------------------------------
  1       -0.000  -0.000   0.000   0.000
  2        0.000  -0.000   0.000  -0.000
------------------------------------------------
tot        0.000  -0.000   0.000  -0.000
 


 magnetization (z)
 
# of ion     s       p       d       tot
----------------------------------------
  1       -0.000  -0.000   0.000   0.000
  2        0.000  -0.000   0.000  -0.000
------------------------------------------------
tot        0.000  -0.000   0.000  -0.000
 

 total amount of memory used by VASP on root node    59466. kBytes
========================================================================

   base      :      30000. kBytes
   nonl-proj :       5041. kBytes
   fftplans  :       1139. kBytes
   grid      :       4064. kBytes
   one-center:         62. kBytes
   wavefun   :      19160. kBytes
 
  
  
 General timing and accounting informations for this job:
 ========================================================
  
                  Total CPU time used (sec):      132.648
                            User time (sec):      123.968
                          System time (sec):        8.681
                         Elapsed time (sec):      145.969
  
                   Maximum memory used (kb):       60336.
                   Average memory used (kb):           0.
  
                          Minor page faults:        15640
                          Major page faults:            0
                 Voluntary context switches:         1559
