PROCAR new format
# of k-points:  216         # of bands:  28         # of ions:   2

 k-point    1 :    0.00000000 0.00000000 0.00000000     weight = 0.00462963

band   1 # energy   -8.81805462 # occ.  1.00000000
 
ion      s      p      d    tot
  1  0.063  0.000  0.000  0.063
  2  0.570  0.000  0.000  0.570
tot  0.632  0.000  0.000  0.632
  1 -0.040  0.000 -0.000 -0.040
  2 -0.366  0.000  0.000 -0.366
tot -0.406  0.000 -0.000 -0.406
  1 -0.033  0.000  0.000 -0.033
  2 -0.302  0.000  0.000 -0.302
tot -0.336  0.000  0.000 -0.336
  1 -0.035  0.000 -0.000 -0.035
  2 -0.315  0.000  0.000 -0.315
tot -0.350  0.000 -0.000 -0.350
 
band   2 # energy   -8.81805208 # occ.  1.00000000
 
ion      s      p      d    tot
  1  0.063  0.000  0.000  0.063
  2  0.570  0.000  0.000  0.570
tot  0.632  0.000  0.000  0.632
  1  0.040 -0.000  0.000  0.040
  2  0.366 -0.000 -0.000  0.366
tot  0.406 -0.000  0.000  0.406
  1  0.033 -0.000  0.000  0.033
  2  0.302 -0.000 -0.000  0.302
tot  0.336 -0.000  0.000  0.336
  1  0.035 -0.000 -0.000  0.035
  2  0.315 -0.000  0.000  0.315
tot  0.350 -0.000 -0.000  0.350
 
band   3 # energy   -6.25717467 # occ.  1.00000000
 
ion      s      p      d    tot
  1  0.000  0.000  0.919  0.919
  2  0.000  0.013  0.001  0.014
tot  0.000  0.013  0.920  0.933
  1  0.000  0.000  0.254  0.254
  2  0.000  0.004  0.000  0.004
tot  0.000  0.004  0.254  0.258
  1  0.000  0.000  0.258  0.258
  2  0.000  0.004  0.000  0.004
tot  0.000  0.004  0.258  0.262
  1  0.000  0.000  0.441  0.441
  2  0.000  0.008  0.000  0.008
tot  0.000  0.008  0.441  0.449
 
band   4 # energy   -6.25717423 # occ.  1.00000000
 
ion      s      p      d    tot
  1  0.000  0.000  0.919  0.919
  2  0.000  0.013  0.001  0.014
tot  0.000  0.013  0.920  0.933
  1  0.000 -0.000 -0.172 -0.172
  2 -0.000 -0.003 -0.000 -0.003
tot -0.000 -0.003 -0.172 -0.175
  1 -0.000 -0.000 -0.183 -0.183
  2 -0.000 -0.003 -0.000 -0.003
tot -0.000 -0.003 -0.183 -0.186
  1 -0.000 -0.000 -0.391 -0.391
  2 -0.000 -0.010 -0.000 -0.010
tot -0.000 -0.010 -0.392 -0.401
 
band   5 # energy   -6.25717358 # occ.  1.00000000
 
ion      s      p      d    tot
  1  0.000  0.000  0.919  0.919
  2  0.000  0.013  0.001  0.014
tot  0.000  0.013  0.920  0.933
  1 -0.000 -0.000 -0.013 -0.013
  2  0.000 -0.003  0.000 -0.003
tot  0.000 -0.003 -0.013 -0.016
  1 -0.000 -0.000 -0.018 -0.018
  2 -0.000 -0.003  0.000 -0.003
tot -0.000 -0.003 -0.018 -0.021
  1 -0.000  0.000 -0.117 -0.117
  2 -0.000  0.001 -0.000  0.000
tot -0.000  0.001 -0.118 -0.117
 
band   6 # energy   -6.25717305 # occ.  1.00000000
 
ion      s      p      d    tot
  1  0.000  0.000  0.919  0.919
  2  0.000  0.013  0.001  0.014
tot  0.000  0.013  0.920  0.933
  1 -0.000  0.000 -0.069 -0.069
  2  0.000  0.002 -0.000  0.002
tot  0.000  0.002 -0.069 -0.067
  1  0.000  0.000 -0.057 -0.057
  2  0.000  0.002 -0.000  0.002
tot  0.000  0.002 -0.057 -0.055
  1  0.000  0.000  0.068  0.068
  2 -0.000  0.002  0.000  0.002
tot -0.000  0.002  0.068  0.069
 
band   7 # energy   -5.71027900 # occ.  1.00000000
 
ion      s      p      d    tot
  1  0.000  0.001  0.894  0.894
  2  0.000  0.026  0.001  0.027
tot  0.000  0.026  0.895  0.921
  1  0.000 -0.000 -0.104 -0.104
  2  0.000 -0.003 -0.000 -0.003
tot  0.000 -0.003 -0.104 -0.107
  1  0.000 -0.000 -0.158 -0.159
  2  0.000 -0.005 -0.000 -0.005
tot  0.000 -0.005 -0.159 -0.163
  1 -0.000  0.000  0.230  0.230
  2 -0.000  0.007  0.000  0.007
tot -0.000  0.007  0.230  0.237
 
band   8 # energy   -5.71027899 # occ.  1.00000000
 
ion      s      p      d    tot
  1  0.000  0.001  0.894  0.894
  2  0.000  0.026  0.001  0.027
tot  0.000  0.026  0.895  0.921
  1 -0.000  0.000  0.104  0.104
  2  0.000  0.003  0.000  0.003
tot -0.000  0.003  0.104  0.107
  1 -0.000  0.000  0.158  0.159
  2  0.000  0.005  0.000  0.005
tot -0.000  0.005  0.159  0.163
  1  0.000 -0.000 -0.230 -0.230
  2 -0.000 -0.007 -0.000 -0.007
tot  0.000 -0.007 -0.230 -0.237
 
band   9 # energy   -5.49813913 # occ.  1.00000000
 
ion      s      p      d    tot
  1  0.000  0.000  0.935  0.935
  2  0.000  0.006  0.001  0.007
tot  0.000  0.006  0.936  0.942
  1 -0.000 -0.000  0.319  0.319
  2 -0.000 -0.001  0.000 -0.001
tot -0.000 -0.001  0.320  0.318
  1 -0.000 -0.000  0.335  0.335
  2  0.000 -0.001  0.000 -0.001
tot -0.000 -0.001  0.335  0.334
  1  0.000 -0.000  0.418  0.418
  2  0.000 -0.001  0.000 -0.001
tot  0.000 -0.001  0.418  0.417
 
band  10 # energy   -5.49813899 # occ.  1.00000000
 
ion      s      p      d    tot
  1  0.000  0.000  0.935  0.935
  2  0.000  0.006  0.001  0.007
tot  0.000  0.006  0.936  0.942
  1 -0.000 -0.000  0.398  0.398
  2  0.000 -0.001  0.000 -0.000
tot  0.000 -0.001  0.398  0.397
  1 -0.000 -0.000  0.391  0.391
  2  0.000 -0.001  0.000 -0.001
tot  0.000 -0.001  0.392  0.390
  1 -0.000 -0.000  0.305  0.305
  2 -0.000 -0.001  0.000 -0.001
tot -0.000 -0.001  0.305  0.304
 
band  11 # energy   -5.49813635 # occ.  1.00000000
 
ion      s      p      d    tot
  1  0.000  0.000  0.935  0.935
  2  0.000  0.006  0.001  0.007
tot  0.000  0.006  0.936  0.942
  1  0.000  0.000 -0.333 -0.333
  2 -0.000  0.001 -0.000  0.001
tot  0.000  0.001 -0.334 -0.333
  1  0.000  0.000 -0.336 -0.336
  2 -0.000  0.001 -0.000  0.001
tot  0.000  0.001 -0.336 -0.335
  1  0.000  0.000 -0.424 -0.424
  2  0.000  0.001 -0.000  0.001
tot  0.000  0.001 -0.424 -0.423
 
band  12 # energy   -5.49813566 # occ.  1.00000000
 
ion      s      p      d    tot
  1  0.000  0.000  0.935  0.935
  2  0.000  0.006  0.001  0.007
tot  0.000  0.006  0.936  0.942
  1  0.000  0.000 -0.384 -0.384
  2  0.000  0.001 -0.000  0.001
tot  0.000  0.001 -0.384 -0.383
  1  0.000  0.000 -0.390 -0.390
  2  0.000  0.001 -0.000  0.001
tot  0.000  0.001 -0.391 -0.389
  1 -0.000  0.000 -0.299 -0.299
  2 -0.000  0.001 -0.000  0.001
tot -0.000  0.001 -0.299 -0.298
 
band  13 # energy    1.77976859 # occ.  1.00000000
 
ion      s      p      d    tot
  1  0.000  0.027  0.087  0.113
  2  0.000  0.498  0.000  0.498
tot  0.000  0.524  0.087  0.611
  1  0.000 -0.005 -0.017 -0.023
  2  0.000 -0.100 -0.000 -0.100
tot  0.000 -0.105 -0.017 -0.123
  1  0.000 -0.005 -0.016 -0.021
  2  0.000 -0.092 -0.000 -0.092
tot  0.000 -0.097 -0.016 -0.113
  1  0.000 -0.005 -0.017 -0.022
  2  0.000 -0.095 -0.000 -0.095
tot  0.000 -0.100 -0.017 -0.117
 
band  14 # energy    1.77977311 # occ.  1.00000000
 
ion      s      p      d    tot
  1  0.000  0.027  0.087  0.113
  2  0.000  0.498  0.000  0.498
tot  0.000  0.524  0.087  0.611
  1 -0.000  0.005  0.017  0.023
  2 -0.000  0.100  0.000  0.100
tot -0.000  0.105  0.017  0.123
  1 -0.000  0.005  0.016  0.021
  2 -0.000  0.092  0.000  0.092
tot -0.000  0.097  0.016  0.113
  1 -0.000  0.005  0.017  0.022
  2 -0.000  0.095  0.000  0.095
tot -0.000  0.100  0.017  0.117
 
band  15 # energy    2.61677082 # occ.  1.00000000
 
ion      s      p      d    tot
  1  0.000  0.027  0.075  0.102
  2  0.000  0.493  0.001  0.494
tot  0.000  0.520  0.075  0.596
  1 -0.000 -0.016 -0.045 -0.061
  2 -0.000 -0.297 -0.000 -0.297
tot -0.000 -0.313 -0.045 -0.358
  1 -0.000 -0.016 -0.043 -0.059
  2 -0.000 -0.285 -0.000 -0.285
tot -0.000 -0.300 -0.043 -0.344
  1  0.000 -0.015 -0.041 -0.056
  2 -0.000 -0.272 -0.000 -0.273
tot  0.000 -0.287 -0.042 -0.329
 
band  16 # energy    2.61677451 # occ.  1.00000000
 
ion      s      p      d    tot
  1  0.000  0.027  0.075  0.102
  2  0.000  0.493  0.001  0.494
tot  0.000  0.520  0.075  0.596
  1  0.000 -0.005 -0.014 -0.019
  2  0.000 -0.095 -0.000 -0.095
tot  0.000 -0.100 -0.014 -0.114
  1 -0.000 -0.004 -0.012 -0.016
  2 -0.000 -0.080 -0.000 -0.080
tot -0.000 -0.084 -0.012 -0.096
  1 -0.000 -0.006 -0.017 -0.023
  2 -0.000 -0.110 -0.000 -0.110
tot -0.000 -0.116 -0.017 -0.133
 
band  17 # energy    2.61677941 # occ.  1.00000000
 
ion      s      p      d    tot
  1  0.000  0.027  0.075  0.102
  2  0.000  0.493  0.001  0.494
tot  0.000  0.520  0.075  0.596
  1  0.000  0.005  0.014  0.020
  2  0.000  0.096  0.000  0.096
tot  0.000  0.101  0.014  0.115
  1  0.000  0.004  0.012  0.017
  2  0.000  0.082  0.000  0.082
tot  0.000  0.086  0.012  0.098
  1  0.000  0.006  0.016  0.022
  2 -0.000  0.107  0.000  0.107
tot  0.000  0.113  0.016  0.129
 
band  18 # energy    2.61678285 # occ.  1.00000000
 
ion      s      p      d    tot
  1  0.000  0.027  0.075  0.102
  2  0.000  0.493  0.001  0.494
tot  0.000  0.520  0.075  0.596
  1  0.000  0.016  0.045  0.061
  2  0.000  0.296  0.000  0.296
tot  0.000  0.312  0.045  0.357
  1  0.000  0.015  0.043  0.058
  2  0.000  0.283  0.000  0.283
tot  0.000  0.298  0.043  0.341
  1  0.000  0.015  0.042  0.057
  2  0.000  0.275  0.000  0.275
tot  0.000  0.290  0.042  0.332
 
band  19 # energy    3.11260602 # occ.  0.00000000
 
ion      s      p      d    tot
  1  0.313  0.000  0.000  0.313
  2  0.239  0.000  0.000  0.239
tot  0.552  0.000  0.000  0.552
  1  0.188 -0.000 -0.000  0.188
  2  0.144 -0.000 -0.000  0.144
tot  0.332 -0.000 -0.000  0.332
  1  0.178  0.000 -0.000  0.178
  2  0.136 -0.000  0.000  0.136
tot  0.314 -0.000 -0.000  0.314
  1  0.176  0.000 -0.000  0.176
  2  0.134 -0.000  0.000  0.134
tot  0.310 -0.000 -0.000  0.310
 
band  20 # energy    3.11262194 # occ.  0.00000000
 
ion      s      p      d    tot
  1  0.313  0.000  0.000  0.313
  2  0.239  0.000  0.000  0.239
tot  0.552  0.000  0.000  0.552
  1 -0.188 -0.000  0.000 -0.188
  2 -0.144  0.000 -0.000 -0.144
tot -0.332  0.000  0.000 -0.332
  1 -0.178 -0.000  0.000 -0.178
  2 -0.136  0.000  0.000 -0.136
tot -0.314  0.000  0.000 -0.314
  1 -0.176 -0.000 -0.000 -0.176
  2 -0.134 -0.000 -0.000 -0.134
tot -0.310 -0.000 -0.000 -0.310
 
band  21 # energy    6.71478172 # occ.  0.00000000
 
ion      s      p      d    tot
  1  0.000  0.259  0.001  0.260
  2  0.000  0.009  0.085  0.093
tot  0.000  0.268  0.086  0.354
  1 -0.000  0.050  0.000  0.050
  2 -0.000  0.002  0.016  0.018
tot -0.000  0.052  0.017  0.068
  1 -0.000  0.047  0.000  0.047
  2 -0.000  0.002  0.015  0.017
tot -0.000  0.048  0.015  0.064
  1 -0.000  0.053  0.000  0.053
  2 -0.000  0.002  0.017  0.019
tot -0.000  0.055  0.017  0.072
 
band  22 # energy    6.71478658 # occ.  0.00000000
 
ion      s      p      d    tot
  1  0.000  0.259  0.001  0.260
  2  0.000  0.009  0.085  0.093
tot  0.000  0.268  0.086  0.354
  1 -0.000 -0.050 -0.000 -0.050
  2 -0.000 -0.002 -0.016 -0.018
tot -0.000 -0.052 -0.017 -0.068
  1 -0.000 -0.047 -0.000 -0.047
  2  0.000 -0.002 -0.015 -0.017
tot -0.000 -0.048 -0.015 -0.064
  1  0.000 -0.053 -0.000 -0.053
  2  0.000 -0.002 -0.017 -0.019
tot  0.000 -0.055 -0.017 -0.072
 
band  23 # energy    7.04850288 # occ.  0.00000000
 
ion      s      p      d    tot
  1  0.000  0.235  0.001  0.236
  2  0.000  0.008  0.098  0.106
tot  0.000  0.243  0.099  0.342
  1 -0.000  0.139  0.001  0.140
  2 -0.000  0.004  0.058  0.063
tot -0.000  0.144  0.059  0.202
  1  0.000  0.140  0.001  0.141
  2 -0.000  0.005  0.059  0.063
tot  0.000  0.145  0.059  0.204
  1 -0.000  0.126  0.000  0.127
  2  0.000  0.004  0.053  0.057
tot -0.000  0.130  0.053  0.184
 
band  24 # energy    7.04850611 # occ.  0.00000000
 
ion      s      p      d    tot
  1  0.000  0.235  0.001  0.236
  2  0.000  0.008  0.098  0.106
tot  0.000  0.243  0.099  0.342
  1 -0.000  0.044  0.000  0.044
  2  0.000  0.001  0.018  0.020
tot -0.000  0.045  0.018  0.063
  1 -0.000  0.040  0.000  0.040
  2  0.000  0.001  0.016  0.018
tot  0.000  0.041  0.017  0.058
  1  0.000  0.053  0.000  0.053
  2  0.000  0.002  0.022  0.024
tot  0.000  0.055  0.022  0.077
 
band  25 # energy    7.04851129 # occ.  0.00000000
 
ion      s      p      d    tot
  1  0.000  0.235  0.001  0.236
  2  0.000  0.008  0.098  0.106
tot  0.000  0.243  0.099  0.342
  1 -0.000 -0.053 -0.000 -0.053
  2  0.000 -0.002 -0.022 -0.024
tot  0.000 -0.055 -0.022 -0.077
  1 -0.000 -0.049 -0.000 -0.049
  2 -0.000 -0.002 -0.020 -0.022
tot -0.000 -0.051 -0.021 -0.072
  1 -0.000 -0.033 -0.000 -0.033
  2 -0.000 -0.001 -0.014 -0.015
tot -0.000 -0.034 -0.014 -0.048
 
band  26 # energy    7.04851478 # occ.  0.00000000
 
ion      s      p      d    tot
  1  0.000  0.235  0.001  0.236
  2  0.000  0.008  0.098  0.106
tot  0.000  0.243  0.099  0.342
  1 -0.000 -0.130 -0.000 -0.130
  2  0.000 -0.004 -0.054 -0.058
tot -0.000 -0.134 -0.055 -0.189
  1 -0.000 -0.131 -0.000 -0.131
  2  0.000 -0.004 -0.055 -0.059
tot -0.000 -0.135 -0.055 -0.190
  1 -0.000 -0.146 -0.001 -0.147
  2 -0.000 -0.005 -0.061 -0.066
tot -0.000 -0.151 -0.062 -0.212
 
band  27 # energy    9.80313606 # occ.  0.00000000
 
ion      s      p      d    tot
  1  0.233  0.000  0.000  0.233
  2  0.006  0.000  0.000  0.006
tot  0.240  0.000  0.000  0.240
  1  0.137 -0.000  0.000  0.137
  2  0.004 -0.000  0.000  0.004
tot  0.140 -0.000  0.000  0.140
  1  0.134 -0.000  0.000  0.134
  2  0.004 -0.000  0.000  0.004
tot  0.137 -0.000  0.000  0.137
  1  0.134  0.000  0.000  0.134
  2  0.004 -0.000  0.000  0.004
tot  0.138 -0.000  0.000  0.138
 
band  28 # energy    9.80322695 # occ.  0.00000000
 
ion      s      p      d    tot
  1  0.233  0.000  0.000  0.233
  2  0.006  0.000  0.000  0.006
tot  0.240  0.000  0.000  0.240
  1 -0.137  0.000  0.000 -0.137
  2 -0.004  0.000  0.000 -0.004
tot -0.140  0.000  0.000 -0.140
  1 -0.134 -0.000  0.000 -0.134
  2 -0.004  0.000  0.000 -0.004
tot -0.137  0.000  0.000 -0.137
  1 -0.134  0.000  0.000 -0.134
  2 -0.004  0.000  0.000 -0.004
tot -0.138  0.000  0.000 -0.138
 

 k-point    2 :    0.16666667 0.00000000 0.00000000     weight = 0.00462963

band   1 # energy   -8.71919673 # occ.  1.00000000
 
ion      s      p      d    tot
  1  0.053  0.003  0.019  0.074
  2  0.574  0.000  0.000  0.574
tot  0.626  0.003  0.019  0.648
  1 -0.033 -0.002 -0.012 -0.047
  2 -0.363 -0.000 -0.000 -0.364
tot -0.397 -0.002 -0.012 -0.410
  1 -0.028 -0.001 -0.010 -0.039
  2 -0.308 -0.000 -0.000 -0.308
tot -0.336 -0.001 -0.010 -0.347
  1 -0.029 -0.001 -0.010 -0.041
  2 -0.320 -0.000 -0.000 -0.320
tot -0.349 -0.001 -0.010 -0.361
 
band   2 # energy   -8.71919366 # occ.  1.00000000
 
ion      s      p      d    tot
  1  0.053  0.003  0.019  0.074
  2  0.574  0.000  0.000  0.574
tot  0.626  0.003  0.019  0.648
  1  0.033  0.002  0.012  0.047
  2  0.363  0.000  0.000  0.364
tot  0.397  0.002  0.012  0.410
  1  0.028  0.001  0.010  0.039
  2  0.308  0.000  0.000  0.308
tot  0.336  0.001  0.010  0.347
  1  0.029  0.001  0.010  0.041
  2  0.320  0.000  0.000  0.320
tot  0.349  0.001  0.010  0.361
 
band   3 # energy   -6.26270050 # occ.  1.00000000
 
ion      s      p      d    tot
  1  0.000  0.000  0.918  0.918
  2  0.000  0.014  0.000  0.014
tot  0.000  0.014  0.919  0.933
  1  0.000  0.000  0.000  0.000
  2  0.000  0.000  0.000  0.000
tot  0.000  0.000  0.000  0.000
  1 -0.000  0.000  0.000  0.000
  2 -0.000  0.000  0.000  0.000
tot -0.000  0.000  0.000  0.000
  1 -0.000  0.000  0.000  0.000
  2 -0.000  0.000  0.000  0.000
tot -0.000  0.000  0.000  0.000
 
band   4 # energy   -6.24021367 # occ.  1.00000000
 
ion      s      p      d    tot
  1  0.000  0.000  0.923  0.923
  2  0.000  0.011  0.001  0.012
tot  0.000  0.011  0.924  0.935
  1 -0.000 -0.000 -0.000 -0.000
  2 -0.000 -0.000 -0.000 -0.000
tot -0.000 -0.000 -0.000 -0.000
  1  0.000 -0.000 -0.000 -0.000
  2  0.000 -0.000  0.000 -0.000
tot  0.000 -0.000 -0.000 -0.000
  1 -0.000 -0.000 -0.000 -0.000
  2 -0.000 -0.000 -0.000 -0.000
tot -0.000 -0.000 -0.000 -0.000
 
band   5 # energy   -6.20405888 # occ.  1.00000000
 
ion      s      p      d    tot
  1  0.002  0.000  0.912  0.914
  2  0.004  0.011  0.001  0.016
tot  0.007  0.011  0.912  0.930
  1 -0.001  0.000  0.093  0.092
  2 -0.002 -0.001  0.000 -0.003
tot -0.003 -0.001  0.093  0.089
  1 -0.001  0.000  0.043  0.041
  2 -0.003 -0.002  0.000 -0.005
tot -0.004 -0.002  0.043  0.036
  1 -0.001  0.000  0.048  0.046
  2 -0.003 -0.002  0.000 -0.005
tot -0.004 -0.002  0.048  0.042
 
band   6 # energy   -6.20405807 # occ.  1.00000000
 
ion      s      p      d    tot
  1  0.002  0.000  0.912  0.914
  2  0.004  0.011  0.001  0.016
tot  0.007  0.011  0.912  0.930
  1  0.001 -0.000 -0.093 -0.092
  2  0.002  0.001 -0.000  0.003
tot  0.003  0.001 -0.093 -0.089
  1  0.001 -0.000 -0.043 -0.041
  2  0.003  0.002 -0.000  0.005
tot  0.004  0.002 -0.043 -0.036
  1  0.001 -0.000 -0.048 -0.046
  2  0.003  0.002 -0.000  0.005
tot  0.004  0.002 -0.048 -0.042
 
band   7 # energy   -5.67092207 # occ.  1.00000000
 
ion      s      p      d    tot
  1  0.001  0.000  0.892  0.894
  2  0.001  0.024  0.001  0.026
tot  0.003  0.025  0.893  0.920
  1 -0.001 -0.000 -0.267 -0.268
  2 -0.001 -0.007 -0.000 -0.008
tot -0.001 -0.007 -0.267 -0.276
  1  0.001 -0.000  0.046  0.047
  2  0.001  0.001  0.000  0.003
tot  0.002  0.001  0.046  0.050
  1  0.001 -0.000 -0.055 -0.054
  2  0.001 -0.001 -0.000 -0.001
tot  0.001 -0.001 -0.055 -0.055
 
band   8 # energy   -5.67092191 # occ.  1.00000000
 
ion      s      p      d    tot
  1  0.001  0.000  0.892  0.894
  2  0.001  0.024  0.001  0.026
tot  0.003  0.025  0.893  0.920
  1  0.001  0.000  0.267  0.268
  2  0.001  0.007  0.000  0.008
tot  0.001  0.007  0.267  0.276
  1 -0.001  0.000 -0.046 -0.047
  2 -0.001 -0.001 -0.000 -0.003
tot -0.002 -0.001 -0.046 -0.050
  1 -0.001  0.000  0.055  0.054
  2 -0.001  0.001  0.000  0.001
tot -0.001  0.001  0.055  0.055
 
band   9 # energy   -5.50014189 # occ.  1.00000000
 
ion      s      p      d    tot
  1  0.000  0.000  0.934  0.934
  2  0.000  0.007  0.001  0.008
tot  0.000  0.007  0.934  0.941
  1 -0.000 -0.000  0.000  0.000
  2 -0.000 -0.000  0.000 -0.000
tot -0.000 -0.000  0.000  0.000
  1  0.000 -0.000  0.000  0.000
  2  0.000 -0.000  0.000 -0.000
tot  0.000 -0.000  0.000  0.000
  1 -0.000 -0.000  0.000  0.000
  2 -0.000 -0.000  0.000 -0.000
tot -0.000 -0.000  0.000  0.000
 
band  10 # energy   -5.48934453 # occ.  1.00000000
 
ion      s      p      d    tot
  1  0.001  0.000  0.927  0.929
  2  0.001  0.007  0.001  0.009
tot  0.003  0.007  0.928  0.938
  1 -0.001 -0.000  0.270  0.269
  2 -0.001 -0.003  0.000 -0.003
tot -0.001 -0.003  0.270  0.266
  1 -0.001 -0.000  0.256  0.255
  2 -0.001 -0.003  0.000 -0.003
tot -0.002 -0.003  0.256  0.251
  1 -0.001 -0.000  0.268  0.267
  2 -0.001 -0.003  0.000 -0.003
tot -0.001 -0.003  0.268  0.264
 
band  11 # energy   -5.48934217 # occ.  1.00000000
 
ion      s      p      d    tot
  1  0.001  0.000  0.927  0.929
  2  0.001  0.007  0.001  0.009
tot  0.003  0.007  0.928  0.938
  1  0.001  0.000 -0.270 -0.269
  2  0.001  0.003 -0.000  0.003
tot  0.001  0.003 -0.270 -0.266
  1  0.001  0.000 -0.256 -0.255
  2  0.001  0.003 -0.000  0.003
tot  0.002  0.003 -0.256 -0.251
  1  0.001  0.000 -0.268 -0.267
  2  0.001  0.003 -0.000  0.003
tot  0.001  0.003 -0.268 -0.264
 
band  12 # energy   -5.47158678 # occ.  1.00000000
 
ion      s      p      d    tot
  1  0.000  0.000  0.940  0.940
  2  0.000  0.003  0.001  0.005
tot  0.000  0.003  0.941  0.945
  1  0.000  0.000 -0.000 -0.000
  2  0.000  0.000 -0.000  0.000
tot  0.000  0.000 -0.000 -0.000
  1 -0.000  0.000 -0.000 -0.000
  2 -0.000  0.000 -0.000  0.000
tot -0.000  0.000 -0.000 -0.000
  1 -0.000  0.000 -0.000 -0.000
  2 -0.000  0.000 -0.000  0.000
tot -0.000  0.000 -0.000 -0.000
 
band  13 # energy    0.54714074 # occ.  1.00000000
 
ion      s      p      d    tot
  1  0.108  0.026  0.062  0.196
  2  0.066  0.290  0.002  0.358
tot  0.174  0.316  0.064  0.554
  1  0.021  0.004  0.009  0.035
  2  0.013  0.045  0.000  0.058
tot  0.034  0.049  0.010  0.093
  1  0.105  0.024  0.054  0.183
  2  0.064  0.254  0.002  0.320
tot  0.169  0.278  0.056  0.502
  1 -0.016 -0.004 -0.010 -0.029
  2 -0.010 -0.046 -0.000 -0.056
tot -0.025 -0.050 -0.010 -0.085
 
band  14 # energy    0.54714111 # occ.  1.00000000
 
ion      s      p      d    tot
  1  0.108  0.026  0.062  0.196
  2  0.066  0.290  0.002  0.358
tot  0.174  0.316  0.064  0.554
  1 -0.021 -0.004 -0.009 -0.035
  2 -0.013 -0.045 -0.000 -0.058
tot -0.034 -0.049 -0.010 -0.093
  1 -0.105 -0.024 -0.054 -0.183
  2 -0.064 -0.254 -0.002 -0.320
tot -0.169 -0.278 -0.056 -0.502
  1  0.016  0.004  0.010  0.029
  2  0.010  0.046  0.000  0.056
tot  0.025  0.050  0.010  0.085
 
band  15 # energy    1.87113919 # occ.  1.00000000
 
ion      s      p      d    tot
  1  0.013  0.038  0.070  0.121
  2  0.007  0.455  0.001  0.463
tot  0.020  0.493  0.071  0.584
  1  0.007 -0.021 -0.039 -0.053
  2  0.004 -0.257 -0.001 -0.254
tot  0.011 -0.278 -0.040 -0.307
  1  0.007 -0.021 -0.039 -0.053
  2  0.004 -0.257 -0.001 -0.254
tot  0.011 -0.278 -0.040 -0.307
  1  0.008 -0.021 -0.039 -0.052
  2  0.004 -0.257 -0.001 -0.253
tot  0.012 -0.278 -0.040 -0.306
 
band  16 # energy    1.87114949 # occ.  1.00000000
 
ion      s      p      d    tot
  1  0.013  0.038  0.070  0.121
  2  0.007  0.455  0.001  0.463
tot  0.020  0.493  0.071  0.584
  1 -0.007  0.021  0.039  0.053
  2 -0.004  0.257  0.001  0.254
tot -0.011  0.278  0.040  0.307
  1 -0.007  0.021  0.039  0.053
  2 -0.004  0.257  0.001  0.254
tot -0.011  0.278  0.040  0.307
  1 -0.008  0.021  0.039  0.052
  2 -0.004  0.257  0.001  0.253
tot -0.012  0.278  0.040  0.306
 
band  17 # energy    2.37093061 # occ.  1.00000000
 
ion      s      p      d    tot
  1  0.000  0.040  0.064  0.104
  2  0.000  0.470  0.001  0.472
tot  0.000  0.510  0.066  0.576
  1  0.000 -0.000 -0.000 -0.000
  2  0.000 -0.000 -0.000 -0.000
tot  0.000 -0.000 -0.000 -0.000
  1  0.000 -0.000 -0.000 -0.000
  2 -0.000 -0.000 -0.000 -0.000
tot  0.000 -0.000 -0.000 -0.000
  1  0.000 -0.000 -0.000 -0.000
  2  0.000 -0.000 -0.000 -0.000
tot  0.000 -0.000 -0.000 -0.000
 
band  18 # energy    2.38806180 # occ.  1.00000000
 
ion      s      p      d    tot
  1  0.000  0.040  0.067  0.106
  2  0.000  0.469  0.001  0.471
tot  0.000  0.509  0.068  0.577
  1  0.000  0.000  0.000  0.000
  2  0.000  0.000  0.000  0.000
tot  0.000  0.000  0.000  0.000
  1 -0.000  0.000  0.000  0.000
  2 -0.000  0.000  0.000  0.000
tot -0.000  0.000  0.000  0.000
  1 -0.000  0.000  0.000  0.000
  2 -0.000  0.000  0.000  0.000
tot -0.000  0.000  0.000  0.000
 
band  19 # energy    4.20955511 # occ.  0.00000000
 
ion      s      p      d    tot
  1  0.219  0.033  0.005  0.258
  2  0.134  0.132  0.009  0.275
tot  0.354  0.165  0.014  0.532
  1  0.137  0.019  0.003  0.159
  2  0.084  0.079  0.005  0.168
tot  0.220  0.098  0.008  0.327
  1  0.129  0.018  0.003  0.150
  2  0.079  0.075  0.005  0.159
tot  0.208  0.093  0.008  0.308
  1  0.113  0.016  0.002  0.131
  2  0.069  0.065  0.004  0.139
tot  0.183  0.081  0.007  0.271
 
band  20 # energy    4.20956216 # occ.  0.00000000
 
ion      s      p      d    tot
  1  0.219  0.033  0.005  0.258
  2  0.134  0.132  0.009  0.275
tot  0.354  0.165  0.014  0.532
  1 -0.137 -0.019 -0.003 -0.159
  2 -0.084 -0.079 -0.005 -0.168
tot -0.220 -0.098 -0.008 -0.327
  1 -0.129 -0.018 -0.003 -0.150
  2 -0.079 -0.075 -0.005 -0.159
tot -0.208 -0.093 -0.008 -0.308
  1 -0.113 -0.016 -0.002 -0.131
  2 -0.069 -0.065 -0.004 -0.139
tot -0.183 -0.081 -0.007 -0.271
 
band  21 # energy    7.04473761 # occ.  0.00000000
 
ion      s      p      d    tot
  1  0.036  0.151  0.013  0.200
  2  0.014  0.100  0.064  0.178
tot  0.050  0.251  0.077  0.378
  1  0.021  0.034  0.005  0.061
  2  0.008  0.047  0.019  0.075
tot  0.030  0.081  0.025  0.136
  1  0.021  0.033  0.005  0.058
  2  0.008  0.046  0.019  0.073
tot  0.029  0.078  0.024  0.131
  1  0.021  0.032  0.005  0.057
  2  0.008  0.045  0.018  0.071
tot  0.029  0.076  0.023  0.128
 
band  22 # energy    7.04475823 # occ.  0.00000000
 
ion      s      p      d    tot
  1  0.036  0.151  0.013  0.200
  2  0.014  0.100  0.064  0.178
tot  0.050  0.251  0.077  0.378
  1 -0.021 -0.034 -0.005 -0.061
  2 -0.008 -0.047 -0.019 -0.075
tot -0.030 -0.081 -0.025 -0.136
  1 -0.021 -0.033 -0.005 -0.058
  2 -0.008 -0.046 -0.019 -0.073
tot -0.029 -0.078 -0.024 -0.131
  1 -0.021 -0.032 -0.005 -0.057
  2 -0.008 -0.045 -0.018 -0.071
tot -0.029 -0.076 -0.023 -0.128
 
band  23 # energy    7.19299448 # occ.  0.00000000
 
ion      s      p      d    tot
  1  0.009  0.214  0.006  0.229
  2  0.003  0.036  0.086  0.125
tot  0.012  0.250  0.092  0.354
  1  0.004 -0.085 -0.001 -0.082
  2  0.001 -0.003 -0.029 -0.031
tot  0.005 -0.088 -0.031 -0.114
  1  0.002 -0.090 -0.002 -0.090
  2  0.001 -0.007 -0.033 -0.039
tot  0.002 -0.097 -0.034 -0.129
  1  0.008 -0.073 -0.000 -0.065
  2  0.003  0.005 -0.022 -0.014
tot  0.011 -0.068 -0.022 -0.079
 
band  24 # energy    7.19299534 # occ.  0.00000000
 
ion      s      p      d    tot
  1  0.009  0.214  0.006  0.229
  2  0.003  0.036  0.086  0.125
tot  0.012  0.250  0.092  0.354
  1 -0.004  0.085  0.001  0.082
  2 -0.001  0.003  0.029  0.031
tot -0.005  0.088  0.031  0.114
  1 -0.002  0.090  0.002  0.090
  2 -0.001  0.007  0.033  0.039
tot -0.002  0.097  0.034  0.129
  1 -0.008  0.073  0.000  0.065
  2 -0.003 -0.005  0.022  0.014
tot -0.011  0.068  0.022  0.079
 
band  25 # energy    7.38294489 # occ.  0.00000000
 
ion      s      p      d    tot
  1  0.000  0.221  0.007  0.228
  2  0.000  0.030  0.100  0.129
tot  0.000  0.251  0.106  0.357
  1  0.000  0.000  0.000  0.000
  2  0.000  0.000  0.000  0.000
tot  0.000  0.000  0.000  0.000
  1  0.000  0.000  0.000  0.000
  2  0.000  0.000  0.000  0.000
tot  0.000  0.000  0.000  0.000
  1 -0.000  0.000  0.000  0.000
  2 -0.000  0.000  0.000  0.000
tot -0.000  0.000  0.000  0.000
 
band  26 # energy    7.39495763 # occ.  0.00000000
 
ion      s      p      d    tot
  1  0.000  0.222  0.006  0.229
  2  0.000  0.029  0.097  0.126
tot  0.000  0.251  0.103  0.354
  1  0.000 -0.000 -0.000 -0.000
  2  0.000 -0.000 -0.000 -0.000
tot  0.000 -0.000 -0.000 -0.000
  1 -0.000 -0.000 -0.000 -0.000
  2  0.000 -0.000 -0.000 -0.000
tot -0.000 -0.000 -0.000 -0.000
  1 -0.000 -0.000 -0.000 -0.000
  2  0.000 -0.000 -0.000 -0.000
tot -0.000 -0.000 -0.000 -0.000
 
band  27 # energy   10.78559271 # occ.  0.00000000
 
ion      s      p      d    tot
  1  0.119  0.060  0.005  0.183
  2  0.004  0.008  0.012  0.024
tot  0.122  0.068  0.017  0.207
  1  0.056  0.028  0.002  0.085
  2  0.002  0.004  0.005  0.010
tot  0.058  0.032  0.007  0.096
  1  0.071  0.035  0.002  0.108
  2  0.002  0.005  0.005  0.012
tot  0.073  0.040  0.007  0.120
  1  0.077  0.039  0.003  0.118
  2  0.002  0.005  0.007  0.015
tot  0.079  0.044  0.010  0.133
 
band  28 # energy   10.81138568 # occ.  0.00000000
 
ion      s      p      d    tot
  1  0.013  0.012  0.069  0.095
  2  0.000  0.002  0.140  0.142
tot  0.014  0.014  0.209  0.237
  1 -0.007  0.000  0.042  0.036
  2 -0.000  0.000  0.084  0.084
tot -0.007  0.000  0.127  0.120
  1 -0.009 -0.001  0.041  0.031
  2 -0.000 -0.000  0.084  0.083
tot -0.009 -0.001  0.125  0.115
  1 -0.007 -0.001  0.034  0.025
  2 -0.000 -0.000  0.067  0.067
tot -0.008 -0.002  0.101  0.092
 

 k-point    3 :    0.33333333 0.00000000 0.00000000     weight = 0.00462963

band   1 # energy   -8.52254545 # occ.  1.00000000
 
ion      s      p      d    tot
  1  0.029  0.008  0.072  0.109
  2  0.576  0.000  0.000  0.576
tot  0.605  0.008  0.072  0.685
  1 -0.018 -0.005 -0.043 -0.066
  2 -0.357 -0.000 -0.000 -0.357
tot -0.375 -0.005 -0.043 -0.424
  1 -0.016 -0.004 -0.038 -0.058
  2 -0.314 -0.000 -0.000 -0.314
tot -0.330 -0.004 -0.038 -0.373
  1 -0.017 -0.004 -0.039 -0.060
  2 -0.324 -0.000 -0.000 -0.324
tot -0.341 -0.004 -0.039 -0.385
 
band   2 # energy   -8.52254127 # occ.  1.00000000
 
ion      s      p      d    tot
  1  0.029  0.008  0.072  0.109
  2  0.576  0.000  0.000  0.576
tot  0.605  0.008  0.072  0.685
  1  0.018  0.005  0.043  0.066
  2  0.357  0.000  0.000  0.357
tot  0.375  0.005  0.043  0.424
  1  0.016  0.004  0.038  0.058
  2  0.314  0.000  0.000  0.314
tot  0.330  0.004  0.038  0.373
  1  0.017  0.004  0.039  0.060
  2  0.324  0.000  0.000  0.324
tot  0.341  0.004  0.039  0.385
 
band   3 # energy   -6.25335415 # occ.  1.00000000
 
ion      s      p      d    tot
  1  0.000  0.000  0.920  0.920
  2  0.000  0.013  0.000  0.013
tot  0.000  0.013  0.921  0.934
  1  0.000  0.000  0.000  0.000
  2  0.000  0.000  0.000  0.000
tot  0.000  0.000  0.000  0.000
  1 -0.000  0.000  0.000  0.000
  2 -0.000  0.000  0.000  0.000
tot -0.000  0.000  0.000  0.000
  1  0.000  0.000  0.000  0.000
  2 -0.000  0.000  0.000  0.000
tot -0.000  0.000  0.000  0.000
 
band   4 # energy   -6.23098803 # occ.  1.00000000
 
ion      s      p      d    tot
  1  0.000  0.000  0.925  0.925
  2  0.000  0.010  0.001  0.011
tot  0.000  0.010  0.926  0.936
  1 -0.000 -0.000 -0.000 -0.000
  2 -0.000 -0.000 -0.000 -0.000
tot -0.000 -0.000 -0.000 -0.000
  1  0.000 -0.000 -0.000 -0.000
  2  0.000 -0.000 -0.000 -0.000
tot  0.000 -0.000 -0.000 -0.000
  1 -0.000 -0.000 -0.000 -0.000
  2 -0.000 -0.000 -0.000 -0.000
tot -0.000 -0.000 -0.000 -0.000
 
band   5 # energy   -6.06930418 # occ.  1.00000000
 
ion      s      p      d    tot
  1  0.003  0.000  0.907  0.911
  2  0.016  0.006  0.001  0.023
tot  0.020  0.006  0.908  0.934
  1 -0.002 -0.000  0.251  0.249
  2 -0.009  0.000  0.000 -0.008
tot -0.011  0.000  0.251  0.241
  1 -0.002 -0.000  0.236  0.234
  2 -0.010  0.000  0.000 -0.009
tot -0.012  0.000  0.236  0.224
  1 -0.002 -0.000  0.239  0.237
  2 -0.010  0.000  0.000 -0.009
tot -0.012  0.000  0.239  0.228
 
band   6 # energy   -6.06930257 # occ.  1.00000000
 
ion      s      p      d    tot
  1  0.003  0.000  0.907  0.911
  2  0.016  0.006  0.001  0.023
tot  0.020  0.006  0.908  0.934
  1  0.002  0.000 -0.251 -0.249
  2  0.009 -0.000 -0.000  0.008
tot  0.011 -0.000 -0.251 -0.241
  1  0.002  0.000 -0.236 -0.234
  2  0.010 -0.000 -0.000  0.009
tot  0.012 -0.000 -0.236 -0.224
  1  0.002  0.000 -0.239 -0.237
  2  0.010 -0.000 -0.000  0.009
tot  0.012 -0.000 -0.239 -0.228
 
band   7 # energy   -5.61475945 # occ.  1.00000000
 
ion      s      p      d    tot
  1  0.001  0.000  0.905  0.906
  2  0.002  0.018  0.001  0.020
tot  0.003  0.018  0.906  0.927
  1 -0.000  0.000  0.458  0.458
  2 -0.001  0.009  0.000  0.008
tot -0.002  0.009  0.459  0.466
  1 -0.000  0.000  0.466  0.466
  2 -0.001  0.009  0.000  0.008
tot -0.001  0.009  0.466  0.474
  1 -0.000  0.000  0.467  0.467
  2 -0.001  0.009  0.000  0.008
tot -0.001  0.009  0.467  0.475
 