    2    2    1    1
  0.2002393E+02  0.3840297E-09  0.3840297E-09  0.3840297E-09  0.5000000E-15
  1.000000000000000E-004
  CAR 
 Name                                    
      8    216      8
 
  0.0000000E+00  0.0000000E+00  0.0000000E+00  0.4901961E-02
    1       -6.194240   1.000000
    2        5.797175   1.000000
    3        5.797175   1.000000
    4        5.797175   1.000000
    5        8.310366   0.000000
    6        8.310366   0.000000
    7        8.310366   0.000000
    8        9.119485   0.000000
 
  0.1666667E+00  0.0000000E+00  0.0000000E+00  0.3921569E-01
    1       -5.831592   1.000000
    2        3.396946   1.000000
    3        5.341562   1.000000
    4        5.341562   1.000000
    5        8.084046   0.000000
    6        8.962044   0.000000
    7        8.962044   0.000000
    8       11.200341   0.000000
 
  0.3333333E+00  0.0000000E+00  0.0000000E+00  0.3921569E-01
    1       -4.810303   1.000000
    2        0.429552   1.000000
    3        4.790460   1.000000
    4        4.790460   1.000000
    5        7.486686   0.000000
    6        9.241998   0.000000
    7        9.241998   0.000000
    8       13.502253   0.000000
 
  0.5000000E+00  0.0000000E+00  0.0000000E+00  0.1960784E-01
    1       -3.844049   1.000000
    2       -1.219828   1.000000
    3        4.592860   1.000000
    4        4.592861   1.000000
    5        7.259940   0.000000
    6        9.065419   0.000000
    7        9.065419   0.000000
    8       13.305248   0.000000
 
  0.1666667E+00  0.1666667E+00  0.0000000E+00  0.2941176E-01
    1       -5.708266   1.000000
    2        3.756019   1.000000
    3        4.588380   1.000000
    4        4.588380   1.000000
    5        7.417280   0.000000
    6       10.019302   0.000000
    7       10.105825   0.000000
    8       10.105826   0.000000
 
  0.3333333E+00  0.1666667E+00  0.0000000E+00  0.1176471E+00
    1       -4.889151   1.000000
    2        1.343195   1.000000
    3        3.778349   1.000000
    4        4.033414   1.000000
    5        7.673941   0.000000
    6        9.785389   0.000000
    7       10.248908   0.000000
    8       10.826349   0.000000
 
  0.5000000E+00  0.1666667E+00  0.0000000E+00  0.1176471E+00
    1       -3.686907   1.000000
    2       -0.843667   1.000000
    3        2.987445   1.000000
    4        4.006063   1.000000
    5        7.743965   0.000000
    6        9.845657   0.000000
    7       10.357778   0.000000
    8       12.136380   0.000000
 
 -0.3333333E+00  0.1666667E+00  0.0000000E+00  0.1176471E+00
    1       -4.076321   1.000000
    2       -0.238459   1.000000
    3        2.711371   1.000000
    4        4.490971   1.000000
    5        8.167518   0.000000
    6        9.842723   0.000000
    7        9.965736   0.000000
    8       13.029065   0.000000
 
 -0.1666667E+00  0.1666667E+00  0.0000000E+00  0.5882353E-01
    1       -5.240683   1.000000
    2        2.066748   1.000000
    3        3.344800   1.000000
    4        5.230858   1.000000
    5        8.783203   0.000000
    6        9.305735   0.000000
    7        9.576622   0.000000
    8       11.374705   0.000000
 
  0.3333333E+00  0.3333333E+00  0.0000000E+00  0.2941176E-01
    1       -4.282439   1.000000
    2        0.781870   1.000000
    3        3.357281   1.000000
    4        3.357281   1.000000
    5        6.412475   0.000000
    6        7.663972   0.000000
    7       13.021273   0.000000
    8       13.021275   0.000000
 
  0.5000000E+00  0.3333333E+00  0.0000000E+00  0.1176471E+00
    1       -3.111674   1.000000
    2       -0.776943   1.000000
    3        2.113757   1.000000
    4        3.221101   1.000000
    5        6.742039   0.000000
    6        8.414559   0.000000
    7       13.196821   0.000000
    8       13.223583   0.000000
 
 -0.3333333E+00  0.3333333E+00  0.0000000E+00  0.5882353E-01
    1       -2.909673   1.000000
    2       -0.986852   1.000000
    3        1.319065   1.000000
    4        3.667526   1.000000
    5        7.252313   0.000000
    6       11.502692   0.000000
    7       12.225089   0.000000
    8       12.818184   0.000000
 
  0.5000000E+00  0.5000000E+00  0.0000000E+00  0.1470588E-01
    1       -2.033097   1.000000
    2       -2.033097   1.000000
    3        2.921066   1.000000
    4        2.921066   1.000000
    5        6.381803   0.000000
    6        6.381803   0.000000
    7       15.858170   0.000000
    8       15.859743   0.000000
 
  0.5000000E+00  0.3333333E+00  0.1666667E+00  0.1176471E+00
    1       -3.893699   1.000000
    2        0.144768   1.000000
    3        2.176415   1.000000
    4        3.471157   1.000000
    5        8.569017   0.000000
    6        9.402462   0.000000
    7        9.973254   0.000000
    8       12.815993   0.000000
 
 -0.3333333E+00  0.3333333E+00  0.1666667E+00  0.1176471E+00
    1       -2.899045   1.000000
    2       -1.064534   1.000000
    3        1.733294   1.000000
    4        2.996146   1.000000
    5        9.052346   0.000000
    6        9.283404   0.000000
    7       11.812708   0.000000
    8       12.250694   0.000000
 
  0.4840000E+00  0.0000000E+00  0.4840000E+00  0.0000000E+00
    1       -2.279017   1.000000
    2       -1.781809   1.000000
    3        2.925131   1.000000
    4        2.925131   1.000000
    5        6.331655   0.000000
    6        6.444178   0.000000
    7       15.751368   0.000000
    8       15.751651   0.000000
 
  0.4840000E+00  0.2487560E-02  0.4840000E+00  0.0000000E+00
    1       -2.297877   1.000000
    2       -1.762048   1.000000
    3        2.925395   1.000000
    4        2.925831   1.000000
    5        6.328579   0.000000
    6        6.449851   0.000000
    7       15.735533   0.000000
    8       15.736782   0.000000
 
  0.4840000E+00  0.4975120E-02  0.4840000E+00  0.0000000E+00
    1       -2.316655   1.000000
    2       -1.742231   1.000000
    3        2.924922   1.000000
    4        2.926667   1.000000
    5        6.326205   0.000000
    6        6.456212   0.000000
    7       15.717663   0.000000
    8       15.720397   0.000000
 
  0.4840000E+00  0.7462690E-02  0.4840000E+00  0.0000000E+00
    1       -2.335350   1.000000
    2       -1.722360   1.000000
    3        2.923717   1.000000
    4        2.927640   1.000000
    5        6.324517   0.000000
    6        6.463276   0.000000
    7       15.698264   0.000000
    8       15.700214   0.000000
 
  0.4840000E+00  0.9950250E-02  0.4840000E+00  0.0000000E+00
    1       -2.353959   1.000000
    2       -1.702438   1.000000
    3        2.921786   1.000000
    4        2.928749   1.000000
    5        6.323493   0.000000
    6        6.471058   0.000000
    7       15.677578   0.000000
    8       15.681131   0.000000
 
  0.4840000E+00  0.1243781E-01  0.4840000E+00  0.0000000E+00
    1       -2.372480   1.000000
    2       -1.682467   1.000000
    3        2.919135   1.000000
    4        2.929995   1.000000
    5        6.323103   0.000000
    6        6.479582   0.000000
    7       15.653549   0.000000
    8       15.658892   0.000000
 
  0.4840000E+00  0.1492537E-01  0.4840000E+00  0.0000000E+00
    1       -2.390914   1.000000
    2       -1.662451   1.000000
    3        2.915775   1.000000
    4        2.931377   1.000000
    5        6.323317   0.000000
    6        6.488872   0.000000
    7       15.628680   0.000000
    8       15.636208   0.000000
 
  0.4840000E+00  0.1741293E-01  0.4840000E+00  0.0000000E+00
    1       -2.409257   1.000000
    2       -1.642391   1.000000
    3        2.911716   1.000000
    4        2.932896   1.000000
    5        6.324098   0.000000
    6        6.498953   0.000000
    7       15.602489   0.000000
    8       15.612225   0.000000
 
  0.4840000E+00  0.1990050E-01  0.4840000E+00  0.0000000E+00
    1       -2.427509   1.000000
    2       -1.622289   1.000000
    3        2.906969   1.000000
    4        2.934551   1.000000
    5        6.325409   0.000000
    6        6.509850   0.000000
    7       15.574600   0.000000
    8       15.587149   0.000000
 
  0.4840000E+00  0.2238806E-01  0.4840000E+00  0.0000000E+00
    1       -2.445667   1.000000
    2       -1.602150   1.000000
    3        2.901551   1.000000
    4        2.936342   1.000000
    5        6.327214   0.000000
    6        6.521588   0.000000
    7       15.545536   0.000000
    8       15.560844   0.000000
 
  0.4840000E+00  0.2487562E-01  0.4840000E+00  0.0000000E+00
    1       -2.463732   1.000000
    2       -1.581979   1.000000
    3        2.895477   1.000000
    4        2.938269   1.000000
    5        6.329476   0.000000
    6        6.534190   0.000000
    7       15.514651   0.000000
    8       15.532785   0.000000
 
  0.4840000E+00  0.2736318E-01  0.4840000E+00  0.0000000E+00
    1       -2.481700   1.000000
    2       -1.561778   1.000000
    3        2.888765   1.000000
    4        2.940329   1.000000
    5        6.332159   0.000000
    6        6.547676   0.000000
    7       15.482701   0.000000
    8       15.504130   0.000000
 
  0.4840000E+00  0.2985075E-01  0.4840000E+00  0.0000000E+00
    1       -2.499573   1.000000
    2       -1.541548   1.000000
    3        2.881429   1.000000
    4        2.942528   1.000000
    5        6.335230   0.000000
    6        6.562062   0.000000
    7       15.449626   0.000000
    8       15.474065   0.000000
 
  0.4840000E+00  0.3233831E-01  0.4840000E+00  0.0000000E+00
    1       -2.517348   1.000000
    2       -1.521294   1.000000
    3        2.873490   1.000000
    4        2.944862   1.000000
    5        6.338657   0.000000
    6        6.577364   0.000000
    7       15.415395   0.000000
    8       15.443086   0.000000
 
  0.4840000E+00  0.3482587E-01  0.4840000E+00  0.0000000E+00
    1       -2.535024   1.000000
    2       -1.501019   1.000000
    3        2.864970   1.000000
    4        2.947332   1.000000
    5        6.342410   0.000000
    6        6.593592   0.000000
    7       15.380028   0.000000
    8       15.410605   0.000000
 
  0.4840000E+00  0.3731343E-01  0.4840000E+00  0.0000000E+00
    1       -2.552598   1.000000
    2       -1.480727   1.000000
    3        2.855889   1.000000
    4        2.949940   1.000000
    5        6.346463   0.000000
    6        6.610753   0.000000
    7       15.343694   0.000000
    8       15.377389   0.000000
 
  0.4840000E+00  0.3980099E-01  0.4840000E+00  0.0000000E+00
    1       -2.570073   1.000000
    2       -1.460422   1.000000
    3        2.846270   1.000000
    4        2.952680   1.000000
    5        6.350793   0.000000
    6        6.628852   0.000000
    7       15.306706   0.000000
    8       15.345058   0.000000
 
  0.4840000E+00  0.4228856E-01  0.4840000E+00  0.0000000E+00
    1       -2.587446   1.000000
    2       -1.440107   1.000000
    3        2.836136   1.000000
    4        2.955556   1.000000
    5        6.355378   0.000000
    6        6.647888   0.000000
    7       15.268281   0.000000
    8       15.308827   0.000000
 
  0.4840000E+00  0.4477612E-01  0.4840000E+00  0.0000000E+00
    1       -2.604716   1.000000
    2       -1.419787   1.000000
    3        2.825511   1.000000
    4        2.958567   1.000000
    5        6.360200   0.000000
    6        6.667859   0.000000
    7       15.229142   0.000000
    8       15.271770   0.000000
 
  0.4840000E+00  0.4726368E-01  0.4840000E+00  0.0000000E+00
    1       -2.621881   1.000000
    2       -1.399463   1.000000
    3        2.814418   1.000000
    4        2.961713   1.000000
    5        6.365245   0.000000
    6        6.688760   0.000000
    7       15.189324   0.000000
    8       15.234772   0.000000
 
  0.4840000E+00  0.4975124E-01  0.4840000E+00  0.0000000E+00
    1       -2.638942   1.000000
    2       -1.379145   1.000000
    3        2.802881   1.000000
    4        2.964993   1.000000
    5        6.370497   0.000000
    6        6.710582   0.000000
    7       15.148768   0.000000
    8       15.196836   0.000000
 
  0.4840000E+00  0.5223880E-01  0.4840000E+00  0.0000000E+00
    1       -2.655896   1.000000
    2       -1.358836   1.000000
    3        2.790927   1.000000
    4        2.968408   1.000000
    5        6.375947   0.000000
    6        6.733315   0.000000
    7       15.107504   0.000000
    8       15.158059   0.000000
 
  0.4840000E+00  0.5472637E-01  0.4840000E+00  0.0000000E+00
    1       -2.672745   1.000000
    2       -1.338539   1.000000
    3        2.778579   1.000000
    4        2.971956   1.000000
    5        6.381584   0.000000
    6        6.756947   0.000000
    7       15.065607   0.000000
    8       15.118536   0.000000
 
  0.4840000E+00  0.5721393E-01  0.4840000E+00  0.0000000E+00
    1       -2.689485   1.000000
    2       -1.318259   1.000000
    3        2.765864   1.000000
    4        2.975639   1.000000
    5        6.387401   0.000000
    6        6.781463   0.000000
    7       15.023122   0.000000
    8       15.078266   0.000000
 
  0.4840000E+00  0.5970149E-01  0.4840000E+00  0.0000000E+00
    1       -2.706117   1.000000
    2       -1.298002   1.000000
    3        2.752806   1.000000
    4        2.979456   1.000000
    5        6.393391   0.000000
    6        6.806848   0.000000
    7       14.980061   0.000000
    8       15.037188   0.000000
 
  0.4840000E+00  0.6218905E-01  0.4840000E+00  0.0000000E+00
    1       -2.722640   1.000000
    2       -1.277773   1.000000
    3        2.739431   1.000000
    4        2.983406   1.000000
    5        6.399550   0.000000
    6        6.833086   0.000000
    7       14.936502   0.000000
    8       14.995459   0.000000
 
  0.4840000E+00  0.6467661E-01  0.4840000E+00  0.0000000E+00
    1       -2.739053   1.000000
    2       -1.257577   1.000000
    3        2.725765   1.000000
    4        2.987489   1.000000
    5        6.405873   0.000000
    6        6.860160   0.000000
    7       14.892463   0.000000
    8       14.953086   0.000000
 
  0.4840000E+00  0.6716418E-01  0.4840000E+00  0.0000000E+00
    1       -2.755356   1.000000
    2       -1.237421   1.000000
    3        2.711832   1.000000
    4        2.991706   1.000000
    5        6.412358   0.000000
    6        6.888051   0.000000
    7       14.848038   0.000000
    8       14.910057   0.000000
 
  0.4840000E+00  0.6965174E-01  0.4840000E+00  0.0000000E+00
    1       -2.771547   1.000000
    2       -1.217309   1.000000
    3        2.697658   1.000000
    4        2.996055   1.000000
    5        6.419001   0.000000
    6        6.916741   0.000000
    7       14.803140   0.000000
    8       14.866483   0.000000
 
  0.4840000E+00  0.7213930E-01  0.4840000E+00  0.0000000E+00
    1       -2.787627   1.000000
    2       -1.197245   1.000000
    3        2.683269   1.000000
    4        3.000538   1.000000
    5        6.425800   0.000000
    6        6.946212   0.000000
    7       14.757837   0.000000
    8       14.822246   0.000000
 
  0.4840000E+00  0.7462686E-01  0.4840000E+00  0.0000000E+00
    1       -2.803596   1.000000
    2       -1.177242   1.000000
    3        2.668688   1.000000
    4        3.005152   1.000000
    5        6.432755   0.000000
    6        6.976444   0.000000
    7       14.712221   0.000000
    8       14.777481   0.000000
 
  0.4840000E+00  0.7711443E-01  0.4840000E+00  0.0000000E+00
    1       -2.819450   1.000000
    2       -1.157301   1.000000
    3        2.653943   1.000000
    4        3.009898   1.000000
    5        6.439865   0.000000
    6        7.007420   0.000000
    7       14.666299   0.000000
    8       14.732240   0.000000
 
  0.4840000E+00  0.7960199E-01  0.4840000E+00  0.0000000E+00
    1       -2.835189   1.000000
    2       -1.137431   1.000000
    3        2.639056   1.000000
    4        3.014776   1.000000
    5        6.447128   0.000000
    6        7.039121   0.000000
    7       14.620076   0.000000
    8       14.686478   0.000000
 
  0.4840000E+00  0.8208955E-01  0.4840000E+00  0.0000000E+00
    1       -2.850815   1.000000
    2       -1.117639   1.000000
    3        2.624051   1.000000
    4        3.019785   1.000000
    5        6.454543   0.000000
    6        7.071527   0.000000
    7       14.573599   0.000000
    8       14.640286   0.000000
 
  0.4840000E+00  0.8457711E-01  0.4840000E+00  0.0000000E+00
    1       -2.866325   1.000000
    2       -1.097931   1.000000
    3        2.608955   1.000000
    4        3.024926   1.000000
    5        6.462112   0.000000
    6        7.104621   0.000000
    7       14.526870   0.000000
    8       14.593610   0.000000
 
  0.4840000E+00  0.8706468E-01  0.4840000E+00  0.0000000E+00
    1       -2.881720   1.000000
    2       -1.078316   1.000000
    3        2.593790   1.000000
    4        3.030197   1.000000
    5        6.469834   0.000000
    6        7.138386   0.000000
    7       14.479920   0.000000
    8       14.546535   0.000000
 
  0.4840000E+00  0.8955224E-01  0.4840000E+00  0.0000000E+00
    1       -2.897000   1.000000
    2       -1.058800   1.000000
    3        2.578581   1.000000
    4        3.035598   1.000000
    5        6.477708   0.000000
    6        7.172803   0.000000
    7       14.432847   0.000000
    8       14.499096   0.000000
 
  0.4840000E+00  0.9203980E-01  0.4840000E+00  0.0000000E+00
    1       -2.912162   1.000000
    2       -1.039392   1.000000
    3        2.563350   1.000000
    4        3.041130   1.000000
    5        6.485735   0.000000
    6        7.207855   0.000000
    7       14.385449   0.000000
    8       14.451230   0.000000
 
  0.4840000E+00  0.9452736E-01  0.4840000E+00  0.0000000E+00
    1       -2.927208   1.000000
    2       -1.020101   1.000000
    3        2.548121   1.000000
    4        3.046791   1.000000
    5        6.493914   0.000000
    6        7.243526   0.000000
    7       14.338147   0.000000
    8       14.403268   0.000000
 
  0.4840000E+00  0.9701493E-01  0.4840000E+00  0.0000000E+00
    1       -2.942136   1.000000
    2       -1.000934   1.000000
    3        2.532919   1.000000
    4        3.052582   1.000000
    5        6.502247   0.000000
    6        7.279800   0.000000
    7       14.290333   0.000000
    8       14.354505   0.000000
 
  0.4840000E+00  0.9950249E-01  0.4840000E+00  0.0000000E+00
    1       -2.956946   1.000000
    2       -0.981901   1.000000
    3        2.517763   1.000000
    4        3.058502   1.000000
    5        6.510732   0.000000
    6        7.316660   0.000000
    7       14.242582   0.000000
    8       14.305662   0.000000
 
  0.4840000E+00  0.1019900E+00  0.4840000E+00  0.0000000E+00
    1       -2.971639   1.000000
    2       -0.963010   1.000000
    3        2.502679   1.000000
    4        3.064550   1.000000
    5        6.519371   0.000000
    6        7.354092   0.000000
    7       14.194712   0.000000
    8       14.256535   0.000000
 
  0.4840000E+00  0.1044776E+00  0.4840000E+00  0.0000000E+00
    1       -2.986212   1.000000
    2       -0.944271   1.000000
    3        2.487689   1.000000
    4        3.070727   1.000000
    5        6.528163   0.000000
    6        7.392081   0.000000
    7       14.146745   0.000000
    8       14.207110   0.000000
 
  0.4840000E+00  0.1069652E+00  0.4840000E+00  0.0000000E+00
    1       -3.000667   1.000000
    2       -0.925694   1.000000
    3        2.472815   1.000000
    4        3.077031   1.000000
    5        6.537109   0.000000
    6        7.430612   0.000000
    7       14.098712   0.000000
    8       14.157436   0.000000
 
  0.4840000E+00  0.1094527E+00  0.4840000E+00  0.0000000E+00
    1       -3.015002   1.000000
    2       -0.907288   1.000000
    3        2.458079   1.000000
    4        3.083462   1.000000
    5        6.546209   0.000000
    6        7.469672   0.000000
    7       14.050584   0.000000
    8       14.107520   0.000000
 
  0.4840000E+00  0.1119403E+00  0.4840000E+00  0.0000000E+00
    1       -3.029218   1.000000
    2       -0.889064   1.000000
    3        2.443503   1.000000
    4        3.090020   1.000000
    5        6.555461   0.000000
    6        7.509246   0.000000
    7       14.002407   0.000000
    8       14.057374   0.000000
 
  0.4840000E+00  0.1144279E+00  0.4840000E+00  0.0000000E+00
    1       -3.043313   1.000000
    2       -0.871030   1.000000
    3        2.429110   1.000000
    4        3.096705   1.000000
    5        6.564869   0.000000
    6        7.549323   0.000000
    7       13.954187   0.000000
    8       14.006996   0.000000
 
  0.4840000E+00  0.1169154E+00  0.4840000E+00  0.0000000E+00
    1       -3.057288   1.000000
    2       -0.853201   1.000000
    3        2.414920   1.000000
    4        3.103518   1.000000
    5        6.574429   0.000000
    6        7.589889   0.000000
    7       13.905930   0.000000
    8       13.956416   0.000000
 
  0.4840000E+00  0.1194030E+00  0.4840000E+00  0.0000000E+00
    1       -3.071143   1.000000
    2       -0.835586   1.000000
    3        2.400954   1.000000
    4        3.110454   1.000000
    5        6.584143   0.000000
    6        7.630932   0.000000
    7       13.857652   0.000000
    8       13.905651   0.000000
 
  0.4840000E+00  0.1218905E+00  0.4840000E+00  0.0000000E+00
    1       -3.084876   1.000000
    2       -0.818196   1.000000
    3        2.387235   1.000000
    4        3.117516   1.000000
    5        6.594010   0.000000
    6        7.672441   0.000000
    7       13.809361   0.000000
    8       13.854711   0.000000
 
  0.4840000E+00  0.1243781E+00  0.4840000E+00  0.0000000E+00
    1       -3.098488   1.000000
    2       -0.801043   1.000000
    3        2.373785   1.000000
    4        3.124701   1.000000
    5        6.604031   0.000000
    6        7.714404   0.000000
    7       13.761065   0.000000
    8       13.803602   0.000000
 
  0.4840000E+00  0.1268657E+00  0.4840000E+00  0.0000000E+00
    1       -3.111979   1.000000
    2       -0.784139   1.000000
    3        2.360623   1.000000
    4        3.132011   1.000000
    5        6.614205   0.000000
    6        7.756811   0.000000
    7       13.712777   0.000000
    8       13.752346   0.000000
 
  0.4840000E+00  0.1293532E+00  0.4840000E+00  0.0000000E+00
    1       -3.125348   1.000000
    2       -0.767496   1.000000
    3        2.347771   1.000000
    4        3.139443   1.000000
    5        6.624532   0.000000
    6        7.799650   0.000000
    7       13.664492   0.000000
    8       13.700942   0.000000
 
  0.4840000E+00  0.1318408E+00  0.4840000E+00  0.0000000E+00
    1       -3.138595   1.000000
    2       -0.751125   1.000000
    3        2.335250   1.000000
    4        3.146999   1.000000
    5        6.635012   0.000000
    6        7.842912   0.000000
    7       13.616231   0.000000
    8       13.649401   0.000000
 
  0.4840000E+00  0.1343284E+00  0.4840000E+00  0.0000000E+00
    1       -3.151721   1.000000
    2       -0.735040   1.000000
    3        2.323079   1.000000
    4        3.154676   1.000000
    5        6.645645   0.000000
    6        7.886586   0.000000
    7       13.568000   0.000000
    8       13.597742   0.000000
 
  0.4840000E+00  0.1368159E+00  0.4840000E+00  0.0000000E+00
    1       -3.164725   1.000000
    2       -0.719252   1.000000
    3        2.311281   1.000000
    4        3.162475   1.000000
    5        6.656429   0.000000
    6        7.930664   0.000000
    7       13.519807   0.000000
    8       13.545972   0.000000
 
  0.4840000E+00  0.1393035E+00  0.4840000E+00  0.0000000E+00
    1       -3.177605   1.000000
    2       -0.703774   1.000000
    3        2.299877   1.000000
    4        3.170396   1.000000
    5        6.667366   0.000000
    6        7.975135   0.000000
    7       13.471661   0.000000
    8       13.494102   0.000000
 
  0.4840000E+00  0.1417911E+00  0.4840000E+00  0.0000000E+00
    1       -3.190364   1.000000
    2       -0.688620   1.000000
    3        2.288882   1.000000
    4        3.178437   1.000000
    5        6.678453   0.000000
    6        8.019991   0.000000
    7       13.423562   0.000000
    8       13.442145   0.000000
 
  0.4840000E+00  0.1442786E+00  0.4840000E+00  0.0000000E+00
    1       -3.203001   1.000000
    2       -0.673802   1.000000
    3        2.278320   1.000000
    4        3.186597   1.000000
    5        6.689692   0.000000
    6        8.065224   0.000000
    7       13.375513   0.000000
    8       13.390084   0.000000
 
  0.4840000E+00  0.1467662E+00  0.4840000E+00  0.0000000E+00
    1       -3.215513   1.000000
    2       -0.659332   1.000000
    3        2.268209   1.000000
    4        3.194877   1.000000
    5        6.701080   0.000000
    6        8.110825   0.000000
    7       13.327532   0.000000
    8       13.337958   0.000000
 
  0.4840000E+00  0.1492537E+00  0.4840000E+00  0.0000000E+00
    1       -3.227902   1.000000
    2       -0.645225   1.000000
    3        2.258569   1.000000
    4        3.203276   1.000000
    5        6.712619   0.000000
    6        8.156786   0.000000
    7       13.279620   0.000000
    8       13.285762   0.000000
 
  0.4840000E+00  0.1517413E+00  0.4840000E+00  0.0000000E+00
    1       -3.240168   1.000000
    2       -0.631493   1.000000
    3        2.249419   1.000000
    4        3.211793   1.000000
    5        6.724306   0.000000
    6        8.203099   0.000000
    7       13.231782   0.000000
    8       13.233505   0.000000
 
  0.4840000E+00  0.1542289E+00  0.4840000E+00  0.0000000E+00
    1       -3.252310   1.000000
    2       -0.618149   1.000000
    3        2.240777   1.000000
    4        3.220426   1.000000
    5        6.736142   0.000000
    6        8.249757   0.000000
    7       13.181199   0.000000
    8       13.184026   0.000000
 
  0.4840000E+00  0.1567164E+00  0.4840000E+00  0.0000000E+00
    1       -3.264328   1.000000
    2       -0.605205   1.000000
    3        2.232661   1.000000
    4        3.229177   1.000000
    5        6.748126   0.000000
    6        8.296753   0.000000
    7       13.128841   0.000000
    8       13.136351   0.000000
 
  0.4840000E+00  0.1592040E+00  0.4840000E+00  0.0000000E+00
    1       -3.276223   1.000000
    2       -0.592673   1.000000
    3        2.225090   1.000000
    4        3.238042   1.000000
    5        6.760256   0.000000
    6        8.344079   0.000000
    7       13.076446   0.000000
    8       13.088770   0.000000
 
  0.4840000E+00  0.1616915E+00  0.4840000E+00  0.0000000E+00
    1       -3.287994   1.000000
    2       -0.580565   1.000000
    3        2.218081   1.000000
    4        3.247023   1.000000
    5        6.772532   0.000000
    6        8.391727   0.000000
    7       13.024021   0.000000
    8       13.041281   0.000000
 
  0.4840000E+00  0.1641791E+00  0.4840000E+00  0.0000000E+00
    1       -3.299642   1.000000
    2       -0.568895   1.000000
    3        2.211649   1.000000
    4        3.256118   1.000000
    5        6.784953   0.000000
    6        8.439693   0.000000
    7       12.971569   0.000000
    8       12.993893   0.000000
 
  0.4840000E+00  0.1666667E+00  0.4840000E+00  0.0000000E+00
    1       -3.311166   1.000000
    2       -0.557672   1.000000
    3        2.205812   1.000000
    4        3.265326   1.000000
    5        6.797518   0.000000
    6        8.487968   0.000000
    7       12.919101   0.000000
    8       12.946610   0.000000
 
  0.4840000E+00  0.1691542E+00  0.4840000E+00  0.0000000E+00
    1       -3.322566   1.000000
    2       -0.546909   1.000000
    3        2.200585   1.000000
    4        3.274647   1.000000
    5        6.810226   0.000000
    6        8.536547   0.000000
    7       12.866615   0.000000
    8       12.899434   0.000000
 
  0.4840000E+00  0.1716418E+00  0.4840000E+00  0.0000000E+00
    1       -3.333843   1.000000
    2       -0.536614   1.000000
    3        2.195984   1.000000
    4        3.284079   1.000000
    5        6.823076   0.000000
    6        8.585422   0.000000
    7       12.814126   0.000000
    8       12.852372   0.000000
 
  0.4840000E+00  0.1741293E+00  0.4840000E+00  0.0000000E+00
    1       -3.344997   1.000000
    2       -0.526800   1.000000
    3        2.192021   1.000000
    4        3.293621   1.000000
    5        6.836067   0.000000
    6        8.634589   0.000000
    7       12.761641   0.000000
    8       12.805436   0.000000
 
  0.4840000E+00  0.1766169E+00  0.4840000E+00  0.0000000E+00
    1       -3.356025   1.000000
    2       -0.517474   1.000000
    3        2.188711   1.000000
    4        3.303274   1.000000
    5        6.849198   0.000000
    6        8.684042   0.000000
    7       12.709149   0.000000
    8       12.758602   0.000000
 
  0.4840000E+00  0.1791045E+00  0.4840000E+00  0.0000000E+00
    1       -3.366930   1.000000
    2       -0.508644   1.000000
    3        2.186067   1.000000
    4        3.313035   1.000000
    5        6.862467   0.000000
    6        8.733773   0.000000
    7       12.656675   0.000000
    8       12.711907   0.000000
 
  0.4840000E+00  0.1815920E+00  0.4840000E+00  0.0000000E+00
    1       -3.377711   1.000000
    2       -0.500320   1.000000
    3        2.184100   1.000000
    4        3.322905   1.000000
    5        6.875874   0.000000
    6        8.783777   0.000000
    7       12.604222   0.000000
    8       12.665337   0.000000
 
  0.4840000E+00  0.1840796E+00  0.4840000E+00  0.0000000E+00
    1       -3.388367   1.000000
    2       -0.492509   1.000000
    3        2.182820   1.000000
    4        3.332882   1.000000
    5        6.889416   0.000000
    6        8.834049   0.000000
    7       12.551790   0.000000
    8       12.618898   0.000000
 
  0.4840000E+00  0.1865672E+00  0.4840000E+00  0.0000000E+00
    1       -3.398901   1.000000
    2       -0.485218   1.000000
    3        2.182237   1.000000
    4        3.342965   1.000000
    5        6.903093   0.000000
    6        8.884583   0.000000
    7       12.499388   0.000000
    8       12.572597   0.000000
 